 Entering Gaussian System, Link 0=g16
 Input=CONF_89_xtb.com
 Output=CONF_89_xtb.log
 Initial command:
 /public/gkxiao/software/g16/l1.exe "/public/gkxiao/tmp/Gau-78621.inp" -scrdir="/public/gkxiao/tmp/"
 Entering Link 1 = /public/gkxiao/software/g16/l1.exe PID=     78623.
  
 Copyright (c) 1988,1990,1992,1993,1995,1998,2003,2009,2016,
            Gaussian, Inc.  All Rights Reserved.
  
 This is part of the Gaussian(R) 16 program.  It is based on
 the Gaussian(R) 09 system (copyright 2009, Gaussian, Inc.),
 the Gaussian(R) 03 system (copyright 2003, Gaussian, Inc.),
 the Gaussian(R) 98 system (copyright 1998, Gaussian, Inc.),
 the Gaussian(R) 94 system (copyright 1995, Gaussian, Inc.),
 the Gaussian 92(TM) system (copyright 1992, Gaussian, Inc.),
 the Gaussian 90(TM) system (copyright 1990, Gaussian, Inc.),
 the Gaussian 88(TM) system (copyright 1988, Gaussian, Inc.),
 the Gaussian 86(TM) system (copyright 1986, Carnegie Mellon
 University), and the Gaussian 82(TM) system (copyright 1983,
 Carnegie Mellon University). Gaussian is a federally registered
 trademark of Gaussian, Inc.
  
 This software contains proprietary and confidential information,
 including trade secrets, belonging to Gaussian, Inc.
  
 This software is provided under written license and may be
 used, copied, transmitted, or stored only in accord with that
 written license.
  
 The following legend is applicable only to US Government
 contracts under FAR:
  
                    RESTRICTED RIGHTS LEGEND
  
 Use, reproduction and disclosure by the US Government is
 subject to restrictions as set forth in subparagraphs (a)
 and (c) of the Commercial Computer Software - Restricted
 Rights clause in FAR 52.227-19.
  
 Gaussian, Inc.
 340 Quinnipiac St., Bldg. 40, Wallingford CT 06492
  
  
 ---------------------------------------------------------------
 Warning -- This program may not be used in any manner that
 competes with the business of Gaussian, Inc. or will provide
 assistance to any competitor of Gaussian, Inc.  The licensee
 of this program is prohibited from giving any competitor of
 Gaussian, Inc. access to this program.  By using this program,
 the user acknowledges that Gaussian, Inc. is engaged in the
 business of creating and licensing software in the field of
 computational chemistry and represents and warrants to the
 licensee that it is not a competitor of Gaussian, Inc. and that
 it will not use this program in any manner prohibited above.
 ---------------------------------------------------------------
  

 Cite this work as:
 Gaussian 16, Revision A.03,
 M. J. Frisch, G. W. Trucks, H. B. Schlegel, G. E. Scuseria, 
 M. A. Robb, J. R. Cheeseman, G. Scalmani, V. Barone, 
 G. A. Petersson, H. Nakatsuji, X. Li, M. Caricato, A. V. Marenich, 
 J. Bloino, B. G. Janesko, R. Gomperts, B. Mennucci, H. P. Hratchian, 
 J. V. Ortiz, A. F. Izmaylov, J. L. Sonnenberg, D. Williams-Young, 
 F. Ding, F. Lipparini, F. Egidi, J. Goings, B. Peng, A. Petrone, 
 T. Henderson, D. Ranasinghe, V. G. Zakrzewski, J. Gao, N. Rega, 
 G. Zheng, W. Liang, M. Hada, M. Ehara, K. Toyota, R. Fukuda, 
 J. Hasegawa, M. Ishida, T. Nakajima, Y. Honda, O. Kitao, H. Nakai, 
 T. Vreven, K. Throssell, J. A. Montgomery, Jr., J. E. Peralta, 
 F. Ogliaro, M. J. Bearpark, J. J. Heyd, E. N. Brothers, K. N. Kudin, 
 V. N. Staroverov, T. A. Keith, R. Kobayashi, J. Normand, 
 K. Raghavachari, A. P. Rendell, J. C. Burant, S. S. Iyengar, 
 J. Tomasi, M. Cossi, J. M. Millam, M. Klene, C. Adamo, R. Cammi, 
 J. W. Ochterski, R. L. Martin, K. Morokuma, O. Farkas, 
 J. B. Foresman, and D. J. Fox, Gaussian, Inc., Wallingford CT, 2016.
 
 ******************************************
 Gaussian 16:  ES64L-G16RevA.03 25-Dec-2016
                24-Jan-2024 
 ******************************************
 %chk=CONF_89_xtb.chk
 --------------------------
 #P OPT external="./xtb.sh"
 --------------------------
 1/6=10,10=10,18=4000020,19=15,26=1,38=1/1,3;
 2/9=110,12=2,17=6,18=5,40=1/2;
 3/11=9,25=1,30=1,41=9900000,43=2,71=1/1;
 4/20=17,22=1001,24=3,113=1,114=1/2;
 6/7=2,8=2,9=2,10=2/1;
 7/44=-1/16;
 1/6=10,10=10,18=4000020,19=15,26=1/3(2);
 2/9=110/2;
 99//99;
 2/9=110/2;
 3/11=9,25=1,30=1,41=9900000,43=2,71=1/1;
 4/16=2,20=17,22=1001,24=3,113=1,114=1/2;
 7/44=-1/16;
 1/6=10,10=10,18=4000020,19=15,26=1/3(-4);
 2/9=110/2;
 6/7=2,8=2,9=2,10=2/1;
 99//99;
 Leave Link    1 at Wed Jan 24 07:45:06 2024, MaxMem=           0 cpu:               0.0 elap:               0.0
 (Enter /public/gkxiao/software/g16/l101.exe)
 -----------------------------------------------------
 Structure: CONF_89 Calculation: Opt at xTB-GNF2 level
 -----------------------------------------------------
 Symbolic Z-matrix:
 Charge =  0 Multiplicity = 1
 C                    -2.8524    0.3435    1.4345 
 C                    -2.6391    0.4571   -0.0494 
 C                    -3.2889    1.6673   -0.6703 
 C                    -1.9378   -0.4063   -0.81 
 C                    -1.2167   -1.6555   -0.3826 
 C                     0.2859   -1.6077   -0.6948 
 C                     1.0895   -0.516     0.051 
 C                     2.527    -0.4782   -0.5183 
 C                     3.419     0.6221    0.0524 
 O                     2.8233    1.901    -0.1057 
 C                     1.0942   -0.7594    1.5629 
 H                    -2.4247   -0.5601    1.8719 
 H                    -3.9242    0.3334    1.6597 
 H                    -2.4018    1.2014    1.9447 
 H                    -3.1115    1.7286   -1.7492 
 H                    -4.3721    1.6385   -0.5131 
 H                    -2.895     2.5829   -0.2169 
 H                    -1.8681   -0.2053   -1.8795 
 H                    -1.3742   -1.897     0.6703 
 H                    -1.6538   -2.4922   -0.9426 
 H                     0.4088   -1.4666   -1.7772 
 H                     0.7165   -2.5914   -0.4657 
 H                     0.621     0.4571   -0.1385 
 H                     3.0166   -1.4477   -0.364 
 H                     2.4582   -0.325    -1.6033 
 H                     4.3841    0.6288   -0.465 
 H                     3.621     0.4644    1.1154 
 H                     2.6113    2.0125   -1.048 
 H                     1.6225    0.0387    2.0931 
 H                     1.5793   -1.71      1.8085 
 H                     0.0799   -0.7824    1.9697 
 
 ITRead=  3  3  3  3  3  3  3  3  3  3  3  3  3  3  3  3  3  3  3  3
 ITRead=  3  3  3  3  3  3  3  3  3  3  3
 MicOpt=  0  0  0  0  0  0  0  0  0  0  0  0  0  0  0  0  0  0  0  0
 MicOpt=  0  0  0  0  0  0  0  0  0  0  0
 NAtoms=     31 NQM=        0 NQMF=       0 NMMI=      0 NMMIF=      0
                NMic=      31 NMicF=      0.
                    Isotopes and Nuclear Properties:
 (Nuclear quadrupole moments (NQMom) in fm**2, nuclear magnetic moments (NMagM)
  in nuclear magnetons)

  Atom         1           2           3           4           5           6           7           8           9          10
 IAtWgt=          12          12          12          12          12          12          12          12          12          16
 AtmWgt=  12.0000000  12.0000000  12.0000000  12.0000000  12.0000000  12.0000000  12.0000000  12.0000000  12.0000000  15.9949146
 NucSpn=           0           0           0           0           0           0           0           0           0           0
 AtZEff=  -0.0000000  -0.0000000  -0.0000000  -0.0000000  -0.0000000  -0.0000000  -0.0000000  -0.0000000  -0.0000000  -0.0000000
 NQMom=    0.0000000   0.0000000   0.0000000   0.0000000   0.0000000   0.0000000   0.0000000   0.0000000   0.0000000   0.0000000
 NMagM=    0.0000000   0.0000000   0.0000000   0.0000000   0.0000000   0.0000000   0.0000000   0.0000000   0.0000000   0.0000000
 AtZNuc=   6.0000000   6.0000000   6.0000000   6.0000000   6.0000000   6.0000000   6.0000000   6.0000000   6.0000000   8.0000000

  Atom        11          12          13          14          15          16          17          18          19          20
 IAtWgt=          12           1           1           1           1           1           1           1           1           1
 AtmWgt=  12.0000000   1.0078250   1.0078250   1.0078250   1.0078250   1.0078250   1.0078250   1.0078250   1.0078250   1.0078250
 NucSpn=           0           1           1           1           1           1           1           1           1           1
 AtZEff=  -0.0000000  -0.0000000  -0.0000000  -0.0000000  -0.0000000  -0.0000000  -0.0000000  -0.0000000  -0.0000000  -0.0000000
 NQMom=    0.0000000   0.0000000   0.0000000   0.0000000   0.0000000   0.0000000   0.0000000   0.0000000   0.0000000   0.0000000
 NMagM=    0.0000000   2.7928460   2.7928460   2.7928460   2.7928460   2.7928460   2.7928460   2.7928460   2.7928460   2.7928460
 AtZNuc=   6.0000000   1.0000000   1.0000000   1.0000000   1.0000000   1.0000000   1.0000000   1.0000000   1.0000000   1.0000000

  Atom        21          22          23          24          25          26          27          28          29          30
 IAtWgt=           1           1           1           1           1           1           1           1           1           1
 AtmWgt=   1.0078250   1.0078250   1.0078250   1.0078250   1.0078250   1.0078250   1.0078250   1.0078250   1.0078250   1.0078250
 NucSpn=           1           1           1           1           1           1           1           1           1           1
 AtZEff=  -0.0000000  -0.0000000  -0.0000000  -0.0000000  -0.0000000  -0.0000000  -0.0000000  -0.0000000  -0.0000000  -0.0000000
 NQMom=    0.0000000   0.0000000   0.0000000   0.0000000   0.0000000   0.0000000   0.0000000   0.0000000   0.0000000   0.0000000
 NMagM=    2.7928460   2.7928460   2.7928460   2.7928460   2.7928460   2.7928460   2.7928460   2.7928460   2.7928460   2.7928460
 AtZNuc=   1.0000000   1.0000000   1.0000000   1.0000000   1.0000000   1.0000000   1.0000000   1.0000000   1.0000000   1.0000000

  Atom        31
 IAtWgt=           1
 AtmWgt=   1.0078250
 NucSpn=           1
 AtZEff=  -0.0000000
 NQMom=    0.0000000
 NMagM=    2.7928460
 AtZNuc=   1.0000000
 Leave Link  101 at Wed Jan 24 07:45:07 2024, MaxMem=   104857600 cpu:               0.2 elap:               0.2
 (Enter /public/gkxiao/software/g16/l103.exe)

 GradGradGradGradGradGradGradGradGradGradGradGradGradGradGradGradGradGrad
 Berny optimization.
 Initialization pass.
 No Z-matrix variables, so optimization will use Cartesian coordinates.
 Trust Radius=1.00D-01 FncErr=1.00D-07 GrdErr=1.00D-07 EigMax=2.50D+02 EigMin=1.00D-04
 Number of steps in this run=      2 maximum allowed number of steps=      2.
 GradGradGradGradGradGradGradGradGradGradGradGradGradGradGradGradGradGrad

 Leave Link  103 at Wed Jan 24 07:45:07 2024, MaxMem=   104857600 cpu:               0.0 elap:               0.0
 (Enter /public/gkxiao/software/g16/l202.exe)
                          Input orientation:                          
 ---------------------------------------------------------------------
 Center     Atomic      Atomic             Coordinates (Angstroms)
 Number     Number       Type             X           Y           Z
 ---------------------------------------------------------------------
      1          6           0       -2.852400    0.343500    1.434500
      2          6           0       -2.639100    0.457100   -0.049400
      3          6           0       -3.288900    1.667300   -0.670300
      4          6           0       -1.937800   -0.406300   -0.810000
      5          6           0       -1.216700   -1.655500   -0.382600
      6          6           0        0.285900   -1.607700   -0.694800
      7          6           0        1.089500   -0.516000    0.051000
      8          6           0        2.527000   -0.478200   -0.518300
      9          6           0        3.419000    0.622100    0.052400
     10          8           0        2.823300    1.901000   -0.105700
     11          6           0        1.094200   -0.759400    1.562900
     12          1           0       -2.424700   -0.560100    1.871900
     13          1           0       -3.924200    0.333400    1.659700
     14          1           0       -2.401800    1.201400    1.944700
     15          1           0       -3.111500    1.728600   -1.749200
     16          1           0       -4.372100    1.638500   -0.513100
     17          1           0       -2.895000    2.582900   -0.216900
     18          1           0       -1.868100   -0.205300   -1.879500
     19          1           0       -1.374200   -1.897000    0.670300
     20          1           0       -1.653800   -2.492200   -0.942600
     21          1           0        0.408800   -1.466600   -1.777200
     22          1           0        0.716500   -2.591400   -0.465700
     23          1           0        0.621000    0.457100   -0.138500
     24          1           0        3.016600   -1.447700   -0.364000
     25          1           0        2.458200   -0.325000   -1.603300
     26          1           0        4.384100    0.628800   -0.465000
     27          1           0        3.621000    0.464400    1.115400
     28          1           0        2.611300    2.012500   -1.048000
     29          1           0        1.622500    0.038700    2.093100
     30          1           0        1.579300   -1.710000    1.808500
     31          1           0        0.079900   -0.782400    1.969700
 ---------------------------------------------------------------------
                    Distance matrix (angstroms):
                    1          2          3          4          5
     1  C    0.000000
     2  C    1.503450   0.000000
     3  C    2.524512   1.507429   0.000000
     4  C    2.537021   1.347514   2.478872   0.000000
     5  C    3.158064   2.568525   3.926549   1.504379   0.000000
     6  C    4.264977   3.638072   4.848239   2.530114   1.535435
     7  C    4.265136   3.854797   4.945448   3.149270   2.608645
     8  C    5.781571   5.270981   6.200884   4.474896   3.926798
     9  C    6.427929   6.061202   6.827200   5.522377   5.183281
    10  O    6.083715   5.650295   6.142669   5.337391   5.389524
    11  C    4.099820   4.244633   5.485218   3.866311   3.150908
    12  H    1.091210   2.184504   3.488686   2.730076   2.782433
    13  H    1.095250   2.141917   2.758948   3.254590   3.931573
    14  H    1.095142   2.141665   2.800399   3.223099   3.870745
    15  H    3.481606   2.174671   1.095104   2.611028   4.112176
    16  H    2.789204   2.148025   1.094926   3.192988   4.563334
    17  H    2.782777   2.147689   1.095012   3.194263   4.561599
    18  H    3.500375   2.093438   2.643382   1.090454   2.183601
    19  H    2.790863   2.767621   4.262337   2.175114   1.091662
    20  H    3.889530   3.235273   4.477627   2.109317   1.097599
    21  H    4.922083   3.996950   4.971875   2.750681   2.150080
    22  H    4.996143   4.552660   5.849924   3.455215   2.149436
    23  H    3.814674   3.261317   4.127313   2.782774   2.810659
    24  H    6.394385   5.976134   7.039629   5.082274   4.238438
    25  H    6.154478   5.385977   6.153772   4.467746   4.094536
    26  H    7.487084   7.037581   7.745680   6.415363   6.049279
    27  H    6.482388   6.367548   7.237569   5.946893   5.490111
    28  H    6.228996   5.566253   5.922346   5.157669   5.343273
    29  H    4.533364   4.788173   5.866052   4.615382   4.130431
    30  H    4.898643   5.093428   6.422614   4.574513   3.552676
    31  H    3.186295   3.606395   4.931475   3.455329   2.824321
                    6          7          8          9         10
     6  C    0.000000
     7  C    1.547191   0.000000
     8  C    2.515840   1.546589   0.000000
     9  C    3.917478   2.592652   1.527096   0.000000
    10  O    4.369944   2.978675   2.432822   1.419662   0.000000
    11  C    2.543653   1.531374   2.542318   3.097555   3.584932
    12  H    3.877211   3.958184   5.499009   6.233539   6.124493
    13  H    5.199662   5.333534   6.857139   7.522589   7.148620
    14  H    4.699121   4.327209   5.760251   6.148016   5.656434
    15  H    4.876985   5.091891   6.178816   6.864221   6.160573
    16  H    5.680475   5.898233   7.216511   7.877442   7.211703
    17  H    5.282768   5.054819   6.233720   6.616937   5.759888
    18  H    2.830187   3.545527   4.609148   5.689486   5.439862
    19  H    2.168669   2.891455   4.318000   5.449994   5.713667
    20  H    2.146202   3.523961   4.659969   6.035080   6.328114
    21  H    1.098455   2.170094   2.654908   4.095291   4.468160
    22  H    1.097984   2.171035   2.783216   4.230664   4.974924
    23  H    2.164523   1.096506   2.156819   2.809354   2.633638
    24  H    2.755313   2.180368   1.097017   2.149276   3.364205
    25  H    2.681339   2.155581   1.097920   2.135762   2.707615
    26  H    4.674397   3.525792   2.162663   1.095064   2.045406
    27  H    4.323577   2.915926   2.180437   1.093454   2.047249
    28  H    4.317185   3.149125   2.547798   1.948454   0.972268
    29  H    3.502787   2.182190   2.811533   2.780688   3.121667
    30  H    2.819550   2.180446   2.798118   3.450663   4.272121
    31  H    2.796983   2.184415   3.502996   4.098567   4.362816
                   11         12         13         14         15
    11  C    0.000000
    12  H    3.538059   0.000000
    13  H    5.136917   1.758372   0.000000
    14  H    4.026478   1.763152   1.775486   0.000000
    15  H    5.903225   4.338457   3.771958   3.798225   0.000000
    16  H    6.319821   3.783442   2.573900   3.180239   1.767816
    17  H    5.500216   3.802988   3.105017   2.612337   1.767666
    18  H    4.575190   3.809027   4.128399   4.109519   2.302822
    19  H    2.860746   2.081993   3.529320   3.504303   4.692245
    20  H    4.102637   3.499815   4.462140   4.747493   4.537692
    21  H    3.482265   4.708120   5.816113   5.373103   4.754219
    22  H    2.759366   4.411087   5.882846   5.469840   5.912982
    23  H    2.144424   3.788495   4.889547   3.745801   4.259416
    24  H    2.807547   5.949355   7.445964   6.458087   7.039977
    25  H    3.474769   5.997916   7.198312   6.207882   5.938023
    26  H    4.106449   7.296187   8.580761   7.223778   7.683928
    27  H    2.843002   6.178380   7.565941   6.124135   7.425004
    28  H    4.099002   6.364384   7.270748   5.894515   5.772584
    29  H    1.094156   4.097233   5.571406   4.191525   6.326910
    30  H    1.095117   4.166330   5.872490   4.933960   6.817977
    31  H    1.093078   2.516347   4.168204   3.177251   5.506394
                   16         17         18         19         20
    16  H    0.000000
    17  H    1.778047   0.000000
    18  H    3.396566   3.404823   0.000000
    19  H    4.784099   4.813467   3.099559   0.000000
    20  H    4.963498   5.274833   2.480649   1.741805   0.000000
    21  H    5.839229   5.454180   2.604922   3.058527   2.450047
    22  H    6.617262   6.314920   3.791103   2.478652   2.419834
    23  H    5.144616   4.109432   3.108934   3.190105   3.810467
    24  H    8.008730   7.156423   5.263135   4.533296   4.820622
    25  H    7.190053   6.247779   4.336760   4.725223   4.694872
    26  H    8.814355   7.540912   6.464251   6.389569   6.813588
    27  H    8.241369   6.980066   6.288731   5.543135   6.387516
    28  H    7.013834   5.597805   5.067056   5.841315   6.204394
    29  H    6.729552   5.675990   5.293900   3.840769   5.133719
    30  H    7.212589   6.523082   5.267830   3.170746   4.316633
    31  H    5.643169   4.995647   4.352481   2.246148   3.796133
                   21         22         23         24         25
    21  H    0.000000
    22  H    1.754961   0.000000
    23  H    2.535939   3.067496   0.000000
    24  H    2.966161   2.570769   3.068878   0.000000
    25  H    2.352346   3.076398   2.476413   1.762989   0.000000
    26  H    4.681408   4.880674   3.781138   2.488395   2.431985
    27  H    4.734356   4.502656   3.251510   2.491997   3.060488
    28  H    4.181731   5.012508   2.684726   3.550367   2.407427
    29  H    4.326456   3.779645   2.481552   3.192216   3.807105
    30  H    3.779756   2.587137   3.066834   2.618089   3.785640
    31  H    3.823031   3.099825   2.504727   3.809591   4.316463
                   26         27         28         29         30
    26  H    0.000000
    27  H    1.762672   0.000000
    28  H    2.323216   2.845419   0.000000
    29  H    3.810319   2.265198   3.839287   0.000000
    30  H    4.301824   3.062179   4.804334   1.772234   0.000000
    31  H    5.142508   3.850159   4.829696   1.751870   1.770488
                   31
    31  H    0.000000
 Stoichiometry    C10H20O
 Framework group  C1[X(C10H20O)]
 Deg. of freedom    87
 Full point group                 C1      NOp   1
 Largest Abelian subgroup         C1      NOp   1
 Largest concise Abelian subgroup C1      NOp   1
                         Standard orientation:                         
 ---------------------------------------------------------------------
 Center     Atomic      Atomic             Coordinates (Angstroms)
 Number     Number       Type             X           Y           Z
 ---------------------------------------------------------------------
      1          6           0       -2.849080    0.260506    1.418353
      2          6           0       -2.631942    0.416185   -0.061166
      3          6           0       -3.304752    1.627683   -0.654411
      4          6           0       -1.909163   -0.412588   -0.839960
      5          6           0       -1.163416   -1.656648   -0.440794
      6          6           0        0.339138   -1.569093   -0.744485
      7          6           0        1.116098   -0.479853    0.032489
      8          6           0        2.554874   -0.397156   -0.528781
      9          6           0        3.420775    0.706993    0.073792
     10          8           0        2.798619    1.976569   -0.054812
     11          6           0        1.119557   -0.761348    1.537765
     12          1           0       -2.404075   -0.644618    1.834837
     13          1           0       -3.921369    0.221972    1.638088
     14          1           0       -2.419049    1.114559    1.952209
     15          1           0       -3.124112    1.720063   -1.730557
     16          1           0       -4.387750    1.571942   -0.503180
     17          1           0       -2.932396    2.539643   -0.176151
     18          1           0       -1.839217   -0.183108   -1.903696
     19          1           0       -1.320207   -1.928048    0.604905
     20          1           0       -1.580191   -2.487964   -1.023833
     21          1           0        0.463603   -1.398024   -1.822375
     22          1           0        0.789636   -2.548931   -0.538240
     23          1           0        0.627766    0.487583   -0.134618
     24          1           0        3.064374   -1.359654   -0.396670
     25          1           0        2.487438   -0.217993   -1.609883
     26          1           0        4.387704    0.747273   -0.438644
     27          1           0        3.621569    0.526715    1.133426
     28          1           0        2.588299    2.107400   -0.995001
     29          1           0        1.628460    0.034079    2.090477
     30          1           0        1.623767   -1.707367    1.761601
     31          1           0        0.104257   -0.816159    1.938991
 ---------------------------------------------------------------------
 Rotational constants (GHZ):           1.4888662           0.5059929           0.4577478
 Leave Link  202 at Wed Jan 24 07:45:07 2024, MaxMem=   104857600 cpu:               0.0 elap:               0.0
 (Enter /public/gkxiao/software/g16/l301.exe)
 Standard basis: STO-3G (5D, 7F)
 Ernie: Thresh=  0.10000D-02 Tol=  0.10000D-05 Strict=F.
 There are    75 symmetry adapted cartesian basis functions of A   symmetry.
 There are    75 symmetry adapted basis functions of A   symmetry.
    75 basis functions,   225 primitive gaussians,    75 cartesian basis functions
    44 alpha electrons       44 beta electrons
       nuclear repulsion energy       642.1896240477 Hartrees.
 IExCor=    0 DFT=F Ex=HF Corr=None ExCW=0 ScaHFX=  1.000000
 ScaDFX=  1.000000  1.000000  1.000000  1.000000 ScalE2=  1.000000  1.000000
 IRadAn=      5 IRanWt=     -1 IRanGd=            0 ICorTp=0 IEmpDi=  4
 NAtoms=   31 NActive=   31 NUniq=   31 SFac= 1.00D+00 NAtFMM=   60 NAOKFM=F Big=F
 Integral buffers will be    131072 words long.
 Raffenetti 1 integral format.
 Two-electron integral symmetry is turned on.
 Leave Link  301 at Wed Jan 24 07:45:07 2024, MaxMem=   104857600 cpu:               0.0 elap:               0.0
 (Enter /public/gkxiao/software/g16/l402.exe)
 External calculation of energy and first derivatives.
 Running external command "./xtb.sh R"
         input file       "/public/gkxiao/tmp/Gau-78623.EIn"
         output file      "/public/gkxiao/tmp/Gau-78623.EOu"
         message file     "/public/gkxiao/tmp/Gau-78623.EMs"
         fchk file        "/public/gkxiao/tmp/Gau-78623.EFC"
         mat. el file     "/public/gkxiao/tmp/Gau-78623.EUF"
Generating mol.tmp
Generating mol.xyz via genxyz
Running: xtb mol.xyz --chrg 0 --uhf 0 --grad > xtbout
xtb running finished!
Extracting data from xtb outputs via extderi
 Recovered energy= -35.6580952071     dipole=      0.000000000000      0.000000000000      0.000000000000
 NRF= 0 NRA=   0 NVA=  31 HaveQM=F NVQ=       0
 Convergence limit is  0.750E-04 MaxStp= 10000 StMxLn= 3.00D-04 StpMin= 1.00D-06.
 Convergence criteria             0.00011250 0.00007500 0.00045000 0.00030000
  Step  NS  ND Rises OKQ   Scale  Max. Force  RMS Force Max. Disp.  RMS Disp.     Energy   Flag
     1   0   0   F    T  1.00D+00 0.01265483 0.00379222 0.01265483 0.00379222  -35.6580952 ----
Generating mol.tmp
Generating mol.xyz via genxyz
Running: xtb mol.xyz --chrg 0 --uhf 0 --grad > xtbout
xtb running finished!
Extracting data from xtb outputs via extderi
     2   0   0   F    F  1.18D-01 0.01265483 0.00379222 0.00148828 0.00044599  -35.6588458 ----
Generating mol.tmp
Generating mol.xyz via genxyz
Running: xtb mol.xyz --chrg 0 --uhf 0 --grad > xtbout
xtb running finished!
Extracting data from xtb outputs via extderi
     3   0   0   F    T  1.71D+00 0.00605599 0.00215397 0.01301448 0.00423821  -35.6588545 ----
Generating mol.tmp
Generating mol.xyz via genxyz
Running: xtb mol.xyz --chrg 0 --uhf 0 --grad > xtbout
xtb running finished!
Extracting data from xtb outputs via extderi
     4   0   0   F    F  6.38D-01 0.00605599 0.00215397 0.00830261 0.00270377  -35.6593690 ----
Generating mol.tmp
Generating mol.xyz via genxyz
Running: xtb mol.xyz --chrg 0 --uhf 0 --grad > xtbout
xtb running finished!
Extracting data from xtb outputs via extderi
     5   0   0   F    T  2.84D+00 0.00523711 0.00177061 0.02003202 0.00694199  -35.6594616 ----
Generating mol.tmp
Generating mol.xyz via genxyz
Running: xtb mol.xyz --chrg 0 --uhf 0 --grad > xtbout
xtb running finished!
Extracting data from xtb outputs via extderi
     6   0   0   F    F  2.11D-01 0.00523711 0.00177061 0.00423217 0.00146664  -35.6599487 ----
Generating mol.tmp
Generating mol.xyz via genxyz
Running: xtb mol.xyz --chrg 0 --uhf 0 --grad > xtbout
xtb running finished!
Extracting data from xtb outputs via extderi
     7   0   0   F    T  5.67D+00 0.00365902 0.00112219 0.02443117 0.00840862  -35.6599641 ----
Generating mol.tmp
Generating mol.xyz via genxyz
Running: xtb mol.xyz --chrg 0 --uhf 0 --grad > xtbout
xtb running finished!
Extracting data from xtb outputs via extderi
     8   0   0   F    F -3.97D-01 0.00365902 0.00112219 0.00969647 0.00333729  -35.6600771 ----
Generating mol.tmp
Generating mol.xyz via genxyz
Running: xtb mol.xyz --chrg 0 --uhf 0 --grad > xtbout
xtb running finished!
Extracting data from xtb outputs via extderi
     9   0   0   F    T  2.73D+00 0.00429589 0.00111982 0.01487792 0.00507133  -35.6601648 ----
Generating mol.tmp
Generating mol.xyz via genxyz
Running: xtb mol.xyz --chrg 0 --uhf 0 --grad > xtbout
xtb running finished!
Extracting data from xtb outputs via extderi
    10   0   0   F    T  4.10D+00 0.00229594 0.00078885 0.01466523 0.00507133  -35.6603213 ----
Generating mol.tmp
Generating mol.xyz via genxyz
Running: xtb mol.xyz --chrg 0 --uhf 0 --grad > xtbout
xtb running finished!
Extracting data from xtb outputs via extderi
    11   0   0   F    F -4.75D-01 0.00229594 0.00078885 0.00696410 0.00240823  -35.6603328 ----
Generating mol.tmp
Generating mol.xyz via genxyz
Running: xtb mol.xyz --chrg 0 --uhf 0 --grad > xtbout
xtb running finished!
Extracting data from xtb outputs via extderi
    12   0   0   F    T  2.01D+00 0.00310365 0.00075398 0.00827094 0.00266310  -35.6603823 ----
Generating mol.tmp
Generating mol.xyz via genxyz
Running: xtb mol.xyz --chrg 0 --uhf 0 --grad > xtbout
xtb running finished!
Extracting data from xtb outputs via extderi
    13   0   0   F    F  4.57D-02 0.00310365 0.00075398 0.00037783 0.00012165  -35.6604376 --++
Generating mol.tmp
Generating mol.xyz via genxyz
Running: xtb mol.xyz --chrg 0 --uhf 0 --grad > xtbout
xtb running finished!
Extracting data from xtb outputs via extderi
    14   0   0   F    T  2.92D+00 0.00145448 0.00056504 0.00911527 0.00278475  -35.6604378 ----
Generating mol.tmp
Generating mol.xyz via genxyz
Running: xtb mol.xyz --chrg 0 --uhf 0 --grad > xtbout
xtb running finished!
Extracting data from xtb outputs via extderi
    15   0   0   F    F  7.61D-02 0.00145448 0.00056504 0.00069375 0.00021194  -35.6604843 ---+
Generating mol.tmp
Generating mol.xyz via genxyz
Running: xtb mol.xyz --chrg 0 --uhf 0 --grad > xtbout
xtb running finished!
Extracting data from xtb outputs via extderi
    16   0   0   F    T  3.33D+00 0.00119592 0.00050061 0.00864398 0.00299669  -35.6604845 ----
Generating mol.tmp
Generating mol.xyz via genxyz
Running: xtb mol.xyz --chrg 0 --uhf 0 --grad > xtbout
xtb running finished!
Extracting data from xtb outputs via extderi
    17   0   0   F    F  1.43D-01 0.00119592 0.00050061 0.00123606 0.00042852  -35.6605282 ----
Generating mol.tmp
Generating mol.xyz via genxyz
Running: xtb mol.xyz --chrg 0 --uhf 0 --grad > xtbout
xtb running finished!
Extracting data from xtb outputs via extderi
    18   0   0   F    T  5.75D+00 0.00089510 0.00036296 0.01125445 0.00342521  -35.6605289 ----
Generating mol.tmp
Generating mol.xyz via genxyz
Running: xtb mol.xyz --chrg 0 --uhf 0 --grad > xtbout
xtb running finished!
Extracting data from xtb outputs via extderi
    19   0   0   F    F -4.10D-01 0.00089510 0.00036296 0.00460897 0.00140271  -35.6605397 ----
Generating mol.tmp
Generating mol.xyz via genxyz
Running: xtb mol.xyz --chrg 0 --uhf 0 --grad > xtbout
xtb running finished!
Extracting data from xtb outputs via extderi
    20   0   0   F    T  1.56D+00 0.00207326 0.00051329 0.00714925 0.00202251  -35.6605497 ----
Generating mol.tmp
Generating mol.xyz via genxyz
Running: xtb mol.xyz --chrg 0 --uhf 0 --grad > xtbout
xtb running finished!
Extracting data from xtb outputs via extderi
    21   0   0   F    F  5.01D-01 0.00207326 0.00051329 0.00358167 0.00101325  -35.6605751 ----
Generating mol.tmp
Generating mol.xyz via genxyz
Running: xtb mol.xyz --chrg 0 --uhf 0 --grad > xtbout
xtb running finished!
Extracting data from xtb outputs via extderi
    22   0   0   F    T  3.17D+00 0.00115435 0.00041789 0.01155185 0.00303575  -35.6605783 ----
Generating mol.tmp
Generating mol.xyz via genxyz
Running: xtb mol.xyz --chrg 0 --uhf 0 --grad > xtbout
xtb running finished!
Extracting data from xtb outputs via extderi
    23   0   0   F    F -9.81D-02 0.00115435 0.00041789 0.00113295 0.00029773  -35.6606013 ---+
Generating mol.tmp
Generating mol.xyz via genxyz
Running: xtb mol.xyz --chrg 0 --uhf 0 --grad > xtbout
xtb running finished!
Extracting data from xtb outputs via extderi
    24   0   0   F    T  5.67D+00 0.00086682 0.00027071 0.01132563 0.00273802  -35.6606015 ----
Generating mol.tmp
Generating mol.xyz via genxyz
Running: xtb mol.xyz --chrg 0 --uhf 0 --grad > xtbout
xtb running finished!
Extracting data from xtb outputs via extderi
    25   0   0   F    F -3.24D-01 0.00086682 0.00027071 0.00366731 0.00088659  -35.6606116 ----
Generating mol.tmp
Generating mol.xyz via genxyz
Running: xtb mol.xyz --chrg 0 --uhf 0 --grad > xtbout
xtb running finished!
Extracting data from xtb outputs via extderi
    26   0   0   F    T  3.79D+00 0.00073937 0.00025185 0.00763133 0.00185143  -35.6606146 ----
Generating mol.tmp
Generating mol.xyz via genxyz
Running: xtb mol.xyz --chrg 0 --uhf 0 --grad > xtbout
xtb running finished!
Extracting data from xtb outputs via extderi
    27   0   0   F    F -3.63D-01 0.00073937 0.00025185 0.00277162 0.00067242  -35.6606194 ----
Generating mol.tmp
Generating mol.xyz via genxyz
Running: xtb mol.xyz --chrg 0 --uhf 0 --grad > xtbout
xtb running finished!
Extracting data from xtb outputs via extderi
    28   0   0   F    T  2.61D+00 0.00086672 0.00022550 0.00472372 0.00117901  -35.6606217 ----
Generating mol.tmp
Generating mol.xyz via genxyz
Running: xtb mol.xyz --chrg 0 --uhf 0 --grad > xtbout
xtb running finished!
Extracting data from xtb outputs via extderi
    29   0   0   F    F -3.17D-01 0.00086672 0.00022550 0.00149552 0.00037327  -35.6606250 ----
Generating mol.tmp
Generating mol.xyz via genxyz
Running: xtb mol.xyz --chrg 0 --uhf 0 --grad > xtbout
xtb running finished!
Extracting data from xtb outputs via extderi
    30   0   0   F    T  2.35D+00 0.00052417 0.00018086 0.00302245 0.00080574  -35.6606259 ----
Generating mol.tmp
Generating mol.xyz via genxyz
Running: xtb mol.xyz --chrg 0 --uhf 0 --grad > xtbout
xtb running finished!
Extracting data from xtb outputs via extderi
    31   0   0   F    F  9.06D-01 0.00052417 0.00018086 0.00273928 0.00073025  -35.6606312 ----
Generating mol.tmp
Generating mol.xyz via genxyz
Running: xtb mol.xyz --chrg 0 --uhf 0 --grad > xtbout
xtb running finished!
Extracting data from xtb outputs via extderi
    32   0   0   F    T  2.62D+00 0.00077622 0.00022738 0.00566517 0.00153599  -35.6606328 ----
Generating mol.tmp
Generating mol.xyz via genxyz
Running: xtb mol.xyz --chrg 0 --uhf 0 --grad > xtbout
xtb running finished!
Extracting data from xtb outputs via extderi
    33   0   0   F    F  7.24D-01 0.00077622 0.00022738 0.00409956 0.00111151  -35.6606418 ----
Generating mol.tmp
Generating mol.xyz via genxyz
Running: xtb mol.xyz --chrg 0 --uhf 0 --grad > xtbout
xtb running finished!
Extracting data from xtb outputs via extderi
    34   0   0   F    T  3.39D+00 0.00090830 0.00025425 0.00936862 0.00264749  -35.6606437 ----
Generating mol.tmp
Generating mol.xyz via genxyz
Running: xtb mol.xyz --chrg 0 --uhf 0 --grad > xtbout
xtb running finished!
Extracting data from xtb outputs via extderi
    35   0   0   F    F -1.69D-01 0.00090830 0.00025425 0.00158663 0.00044837  -35.6606518 ----
Generating mol.tmp
Generating mol.xyz via genxyz
Running: xtb mol.xyz --chrg 0 --uhf 0 --grad > xtbout
xtb running finished!
Extracting data from xtb outputs via extderi
    36   0   0   F    T  3.89D+00 0.00089349 0.00020905 0.00738117 0.00219912  -35.6606521 ----
Generating mol.tmp
Generating mol.xyz via genxyz
Running: xtb mol.xyz --chrg 0 --uhf 0 --grad > xtbout
xtb running finished!
Extracting data from xtb outputs via extderi
    37   0   0   F    F -4.05D-01 0.00089349 0.00020905 0.00298686 0.00088989  -35.6606547 ----
Generating mol.tmp
Generating mol.xyz via genxyz
Running: xtb mol.xyz --chrg 0 --uhf 0 --grad > xtbout
xtb running finished!
Extracting data from xtb outputs via extderi
    38   0   0   F    T  2.05D+00 0.00080805 0.00021537 0.00431337 0.00130923  -35.6606569 ----
Generating mol.tmp
Generating mol.xyz via genxyz
Running: xtb mol.xyz --chrg 0 --uhf 0 --grad > xtbout
xtb running finished!
Extracting data from xtb outputs via extderi
    39   0   0   F    F  8.28D-02 0.00080805 0.00021537 0.00035708 0.00010838  -35.6606616 --++
Generating mol.tmp
Generating mol.xyz via genxyz
Running: xtb mol.xyz --chrg 0 --uhf 0 --grad > xtbout
xtb running finished!
Extracting data from xtb outputs via extderi
    40   0   0   F    T  3.55D+00 0.00053065 0.00016312 0.00453222 0.00141761  -35.6606617 ----
Generating mol.tmp
Generating mol.xyz via genxyz
Running: xtb mol.xyz --chrg 0 --uhf 0 --grad > xtbout
xtb running finished!
Extracting data from xtb outputs via extderi
    41   0   0   F    F  2.27D-01 0.00053065 0.00016312 0.00103060 0.00032236  -35.6606669 ----
Generating mol.tmp
Generating mol.xyz via genxyz
Running: xtb mol.xyz --chrg 0 --uhf 0 --grad > xtbout
xtb running finished!
Extracting data from xtb outputs via extderi
    42   0   0   F    T  3.17D+00 0.00056229 0.00018557 0.00543116 0.00173997  -35.6606670 ----
Generating mol.tmp
Generating mol.xyz via genxyz
Running: xtb mol.xyz --chrg 0 --uhf 0 --grad > xtbout
xtb running finished!
Extracting data from xtb outputs via extderi
    43   0   0   F    F  9.75D-01 0.00056229 0.00018557 0.00529600 0.00169667  -35.6606746 ----
Generating mol.tmp
Generating mol.xyz via genxyz
Running: xtb mol.xyz --chrg 0 --uhf 0 --grad > xtbout
xtb running finished!
Extracting data from xtb outputs via extderi
    44   0   0   F    T  3.54D+00 0.00077920 0.00024250 0.01056282 0.00343663  -35.6606771 ----
Generating mol.tmp
Generating mol.xyz via genxyz
Running: xtb mol.xyz --chrg 0 --uhf 0 --grad > xtbout
xtb running finished!
Extracting data from xtb outputs via extderi
    45   0   0   F    F -4.01D-01 0.00077920 0.00024250 0.00423282 0.00137716  -35.6606803 ----
Generating mol.tmp
Generating mol.xyz via genxyz
Running: xtb mol.xyz --chrg 0 --uhf 0 --grad > xtbout
xtb running finished!
Extracting data from xtb outputs via extderi
    46   0   0   F    T  2.08D+00 0.00079396 0.00024093 0.00603750 0.00205948  -35.6606829 ----
Generating mol.tmp
Generating mol.xyz via genxyz
Running: xtb mol.xyz --chrg 0 --uhf 0 --grad > xtbout
xtb running finished!
Extracting data from xtb outputs via extderi
    47   0   0   F    F  3.06D-01 0.00079396 0.00024093 0.00185022 0.00063113  -35.6606898 ----
Generating mol.tmp
Generating mol.xyz via genxyz
Running: xtb mol.xyz --chrg 0 --uhf 0 --grad > xtbout
xtb running finished!
Extracting data from xtb outputs via extderi
    48   0   0   F    T  2.57D+00 0.00072837 0.00024439 0.00709305 0.00269061  -35.6606902 ----
Generating mol.tmp
Generating mol.xyz via genxyz
Running: xtb mol.xyz --chrg 0 --uhf 0 --grad > xtbout
xtb running finished!
Extracting data from xtb outputs via extderi
    49   0   0   F    F  1.09D+00 0.00072837 0.00024439 0.00770047 0.00292102  -35.6607011 ----
Generating mol.tmp
Generating mol.xyz via genxyz
Running: xtb mol.xyz --chrg 0 --uhf 0 --grad > xtbout
xtb running finished!
Extracting data from xtb outputs via extderi
    50   0   0   F    T  3.79D+00 0.00087225 0.00028856 0.01612153 0.00561163  -35.6607051 ----
Generating mol.tmp
Generating mol.xyz via genxyz
Running: xtb mol.xyz --chrg 0 --uhf 0 --grad > xtbout
xtb running finished!
Extracting data from xtb outputs via extderi
    51   0   0   F    F  1.06D-01 0.00087225 0.00028856 0.00170136 0.00059222  -35.6607212 ----
Generating mol.tmp
Generating mol.xyz via genxyz
Running: xtb mol.xyz --chrg 0 --uhf 0 --grad > xtbout
xtb running finished!
Extracting data from xtb outputs via extderi
    52   0   0   F    T  3.96D+00 0.00094930 0.00029326 0.01936105 0.00620385  -35.6607214 ----
Generating mol.tmp
Generating mol.xyz via genxyz
Running: xtb mol.xyz --chrg 0 --uhf 0 --grad > xtbout
xtb running finished!
Extracting data from xtb outputs via extderi
    53   0   0   F    F -3.48D-01 0.00094930 0.00029326 0.00674045 0.00215984  -35.6607288 ----
Generating mol.tmp
Generating mol.xyz via genxyz
Running: xtb mol.xyz --chrg 0 --uhf 0 --grad > xtbout
xtb running finished!
Extracting data from xtb outputs via extderi
    54   0   0   F    T  1.93D+00 0.00118789 0.00033726 0.01326853 0.00404401  -35.6607317 ----
Generating mol.tmp
Generating mol.xyz via genxyz
Running: xtb mol.xyz --chrg 0 --uhf 0 --grad > xtbout
xtb running finished!
Extracting data from xtb outputs via extderi
    55   0   0   F    F  5.32D-01 0.00118789 0.00033726 0.00705895 0.00215144  -35.6607455 ----
Generating mol.tmp
Generating mol.xyz via genxyz
Running: xtb mol.xyz --chrg 0 --uhf 0 --grad > xtbout
xtb running finished!
Extracting data from xtb outputs via extderi
    56   0   0   F    T  2.75D+00 0.00114299 0.00034808 0.02094805 0.00619545  -35.6607474 ----
Generating mol.tmp
Generating mol.xyz via genxyz
Running: xtb mol.xyz --chrg 0 --uhf 0 --grad > xtbout
xtb running finished!
Extracting data from xtb outputs via extderi
    57   0   0   F    F -1.20D-01 0.00114299 0.00034808 0.00250412 0.00074060  -35.6607608 ----
Generating mol.tmp
Generating mol.xyz via genxyz
Running: xtb mol.xyz --chrg 0 --uhf 0 --grad > xtbout
xtb running finished!
Extracting data from xtb outputs via extderi
    58   0   0   F    T  3.84D+00 0.00106812 0.00027462 0.01868342 0.00545485  -35.6607610 ----
Generating mol.tmp
Generating mol.xyz via genxyz
Running: xtb mol.xyz --chrg 0 --uhf 0 --grad > xtbout
xtb running finished!
Extracting data from xtb outputs via extderi
    59   0   0   F    F  2.32D-01 0.00106812 0.00027462 0.00433344 0.00126520  -35.6607770 ----
Generating mol.tmp
Generating mol.xyz via genxyz
Running: xtb mol.xyz --chrg 0 --uhf 0 --grad > xtbout
xtb running finished!
Extracting data from xtb outputs via extderi
    60   0   0   F    T  4.61D+00 0.00090843 0.00027503 0.02282848 0.00672005  -35.6607776 ----
Generating mol.tmp
Generating mol.xyz via genxyz
Running: xtb mol.xyz --chrg 0 --uhf 0 --grad > xtbout
xtb running finished!
Extracting data from xtb outputs via extderi
    61   0   0   F    F -3.11D-01 0.00090843 0.00027503 0.00711017 0.00209303  -35.6607865 ----
Generating mol.tmp
Generating mol.xyz via genxyz
Running: xtb mol.xyz --chrg 0 --uhf 0 --grad > xtbout
xtb running finished!
Extracting data from xtb outputs via extderi
    62   0   0   F    T  2.91D+00 0.00127753 0.00028389 0.01553465 0.00462702  -35.6607888 ----
Generating mol.tmp
Generating mol.xyz via genxyz
Running: xtb mol.xyz --chrg 0 --uhf 0 --grad > xtbout
xtb running finished!
Extracting data from xtb outputs via extderi
    63   0   0   F    F -1.17D-01 0.00127753 0.00028389 0.00182079 0.00054232  -35.6607982 ----
Generating mol.tmp
Generating mol.xyz via genxyz
Running: xtb mol.xyz --chrg 0 --uhf 0 --grad > xtbout
xtb running finished!
Extracting data from xtb outputs via extderi
    64   0   0   F    T  1.92D+00 0.00118330 0.00032683 0.01356183 0.00408470  -35.6607984 ----
Generating mol.tmp
Generating mol.xyz via genxyz
Running: xtb mol.xyz --chrg 0 --uhf 0 --grad > xtbout
xtb running finished!
Extracting data from xtb outputs via extderi
    65   0   0   F    F  3.67D-01 0.00118330 0.00032683 0.00497672 0.00149894  -35.6608105 ----
Generating mol.tmp
Generating mol.xyz via genxyz
Running: xtb mol.xyz --chrg 0 --uhf 0 --grad > xtbout
xtb running finished!
Extracting data from xtb outputs via extderi
    66   0   0   F    T  3.80D+00 0.00071470 0.00026983 0.01798203 0.00558364  -35.6608114 ----
Generating mol.tmp
Generating mol.xyz via genxyz
Running: xtb mol.xyz --chrg 0 --uhf 0 --grad > xtbout
xtb running finished!
Extracting data from xtb outputs via extderi
    67   0   0   F    F  6.21D-01 0.00071470 0.00026983 0.01116274 0.00346617  -35.6608293 ----
Generating mol.tmp
Generating mol.xyz via genxyz
Running: xtb mol.xyz --chrg 0 --uhf 0 --grad > xtbout
xtb running finished!
Extracting data from xtb outputs via extderi
    68   0   0   F    T  3.01D+00 0.00119449 0.00038509 0.02886615 0.00904980  -35.6608324 ----
Generating mol.tmp
Generating mol.xyz via genxyz
Running: xtb mol.xyz --chrg 0 --uhf 0 --grad > xtbout
xtb running finished!
Extracting data from xtb outputs via extderi
    69   0   0   F    F  7.88D-01 0.00119449 0.00038509 0.02273432 0.00712742  -35.6608622 ----
Generating mol.tmp
Generating mol.xyz via genxyz
Running: xtb mol.xyz --chrg 0 --uhf 0 --grad > xtbout
xtb running finished!
Extracting data from xtb outputs via extderi
    70   0   0   F    T  4.00D+00 0.00136480 0.00044512 0.05099808 0.01617722  -35.6608694 ----
Generating mol.tmp
Generating mol.xyz via genxyz
Running: xtb mol.xyz --chrg 0 --uhf 0 --grad > xtbout
xtb running finished!
Extracting data from xtb outputs via extderi
    71   0   0   F    F -4.06D-01 0.00136480 0.00044512 0.02072348 0.00657374  -35.6608811 ----
Generating mol.tmp
Generating mol.xyz via genxyz
Running: xtb mol.xyz --chrg 0 --uhf 0 --grad > xtbout
xtb running finished!
Extracting data from xtb outputs via extderi
    72   0   0   F    T  2.05D+00 0.00160122 0.00047554 0.03018744 0.00960348  -35.6608912 ----
Generating mol.tmp
Generating mol.xyz via genxyz
Running: xtb mol.xyz --chrg 0 --uhf 0 --grad > xtbout
xtb running finished!
Extracting data from xtb outputs via extderi
    73   0   0   F    F  1.62D-01 0.00160122 0.00047554 0.00489440 0.00155705  -35.6609157 ----
Generating mol.tmp
Generating mol.xyz via genxyz
Running: xtb mol.xyz --chrg 0 --uhf 0 --grad > xtbout
xtb running finished!
Extracting data from xtb outputs via extderi
    74   0   0   F    T  3.09D+00 0.00119580 0.00041459 0.03524471 0.01116053  -35.6609162 ----
Generating mol.tmp
Generating mol.xyz via genxyz
Running: xtb mol.xyz --chrg 0 --uhf 0 --grad > xtbout
xtb running finished!
Extracting data from xtb outputs via extderi
    75   0   0   F    F  4.61D-01 0.00119580 0.00041459 0.01623703 0.00514159  -35.6609489 ----
Generating mol.tmp
Generating mol.xyz via genxyz
Running: xtb mol.xyz --chrg 0 --uhf 0 --grad > xtbout
xtb running finished!
Extracting data from xtb outputs via extderi
    76   0   0   F    T  3.87D+00 0.00141287 0.00045030 0.05117449 0.01630211  -35.6609525 ----
Generating mol.tmp
Generating mol.xyz via genxyz
Running: xtb mol.xyz --chrg 0 --uhf 0 --grad > xtbout
xtb running finished!
Extracting data from xtb outputs via extderi
    77   0   0   F    F -1.60D-01 0.00141287 0.00045030 0.00816464 0.00260092  -35.6609821 ----
Generating mol.tmp
Generating mol.xyz via genxyz
Running: xtb mol.xyz --chrg 0 --uhf 0 --grad > xtbout
xtb running finished!
Extracting data from xtb outputs via extderi
    78   0   0   F    T  5.80D+00 0.00123852 0.00034082 0.04233815 0.01370119  -35.6609832 ----
Generating mol.tmp
Generating mol.xyz via genxyz
Running: xtb mol.xyz --chrg 0 --uhf 0 --grad > xtbout
xtb running finished!
Extracting data from xtb outputs via extderi
    79   0   0   T    F  4.64D-01 0.00123852 0.00034082 0.01963380 0.00635376  -35.6609784 ----
Generating mol.tmp
Generating mol.xyz via genxyz
Running: xtb mol.xyz --chrg 0 --uhf 0 --grad > xtbout
xtb running finished!
Extracting data from xtb outputs via extderi
    80   0   0   F    T  3.66D+00 0.00101051 0.00028909 0.01971483 0.00635376  -35.6609977 ----
Generating mol.tmp
Generating mol.xyz via genxyz
Running: xtb mol.xyz --chrg 0 --uhf 0 --grad > xtbout
xtb running finished!
Extracting data from xtb outputs via extderi
    81   0   0   F    F  9.95D-02 0.00101051 0.00028909 0.00196204 0.00063233  -35.6610132 ----
Generating mol.tmp
Generating mol.xyz via genxyz
Running: xtb mol.xyz --chrg 0 --uhf 0 --grad > xtbout
xtb running finished!
Extracting data from xtb outputs via extderi
    82   0   0   F    T  2.74D+00 0.00139299 0.00034808 0.02185382 0.00698609  -35.6610133 ----
Generating mol.tmp
Generating mol.xyz via genxyz
Running: xtb mol.xyz --chrg 0 --uhf 0 --grad > xtbout
xtb running finished!
Extracting data from xtb outputs via extderi
    83   0   0   F    F -3.70D-01 0.00139299 0.00034808 0.00807968 0.00258286  -35.6610197 ----
Generating mol.tmp
Generating mol.xyz via genxyz
Running: xtb mol.xyz --chrg 0 --uhf 0 --grad > xtbout
xtb running finished!
Extracting data from xtb outputs via extderi
    84   0   0   F    T  2.65D+00 0.00076844 0.00027808 0.01394246 0.00440323  -35.6610230 ----
Generating mol.tmp
Generating mol.xyz via genxyz
Running: xtb mol.xyz --chrg 0 --uhf 0 --grad > xtbout
xtb running finished!
Extracting data from xtb outputs via extderi
    85   0   0   F    F  2.82D-01 0.00076844 0.00027808 0.00392612 0.00123993  -35.6610346 ----
Generating mol.tmp
Generating mol.xyz via genxyz
Running: xtb mol.xyz --chrg 0 --uhf 0 --grad > xtbout
xtb running finished!
Extracting data from xtb outputs via extderi
    86   0   0   F    T  2.99D+00 0.00085928 0.00029431 0.01782261 0.00564316  -35.6610352 ----
Generating mol.tmp
Generating mol.xyz via genxyz
Running: xtb mol.xyz --chrg 0 --uhf 0 --grad > xtbout
xtb running finished!
Extracting data from xtb outputs via extderi
    87   0   0   F    F  2.06D+00 0.00085928 0.00029431 0.03671469 0.01162494  -35.6610555 ----
Generating mol.tmp
Generating mol.xyz via genxyz
Running: xtb mol.xyz --chrg 0 --uhf 0 --grad > xtbout
xtb running finished!
Extracting data from xtb outputs via extderi
    88   0   0   F    T  9.17D+00 0.00068144 0.00029627 0.05170366 0.01726810  -35.6610724 ----
Generating mol.tmp
Generating mol.xyz via genxyz
Running: xtb mol.xyz --chrg 0 --uhf 0 --grad > xtbout
xtb running finished!
Extracting data from xtb outputs via extderi
    89   0   0   T    F  4.42D-01 0.00068144 0.00029627 0.02284999 0.00763149  -35.6610625 ----
Generating mol.tmp
Generating mol.xyz via genxyz
Running: xtb mol.xyz --chrg 0 --uhf 0 --grad > xtbout
xtb running finished!
Extracting data from xtb outputs via extderi
    90   0   0   F    T  3.17D+00 0.00075436 0.00033481 0.02168000 0.00763149  -35.6610890 ----
Generating mol.tmp
Generating mol.xyz via genxyz
Running: xtb mol.xyz --chrg 0 --uhf 0 --grad > xtbout
xtb running finished!
Extracting data from xtb outputs via extderi
    91   0   0   F    F  7.23D-01 0.00075436 0.00033481 0.01566521 0.00551425  -35.6611123 ----
Generating mol.tmp
Generating mol.xyz via genxyz
Running: xtb mol.xyz --chrg 0 --uhf 0 --grad > xtbout
xtb running finished!
Extracting data from xtb outputs via extderi
    92   0   0   F    T  6.02D+00 0.00100022 0.00031497 0.03691153 0.01314574  -35.6611173 ----
Generating mol.tmp
Generating mol.xyz via genxyz
Running: xtb mol.xyz --chrg 0 --uhf 0 --grad > xtbout
xtb running finished!
Extracting data from xtb outputs via extderi
    93   0   0   F    F -4.26D-01 0.00100022 0.00031497 0.01571249 0.00559587  -35.6611244 ----
Generating mol.tmp
Generating mol.xyz via genxyz
Running: xtb mol.xyz --chrg 0 --uhf 0 --grad > xtbout
xtb running finished!
Extracting data from xtb outputs via extderi
    94   0   0   F    T  3.65D+00 0.00137852 0.00030425 0.02076457 0.00754986  -35.6611333 ----
Generating mol.tmp
Generating mol.xyz via genxyz
Running: xtb mol.xyz --chrg 0 --uhf 0 --grad > xtbout
xtb running finished!
Extracting data from xtb outputs via extderi
    95   0   0   F    F -1.30D-01 0.00137852 0.00030425 0.00269899 0.00098133  -35.6611466 ----
Generating mol.tmp
Generating mol.xyz via genxyz
Running: xtb mol.xyz --chrg 0 --uhf 0 --grad > xtbout
xtb running finished!
Extracting data from xtb outputs via extderi
    96   0   0   F    T  4.65D+00 0.00085517 0.00025003 0.01698951 0.00656853  -35.6611469 ----
Generating mol.tmp
Generating mol.xyz via genxyz
Running: xtb mol.xyz --chrg 0 --uhf 0 --grad > xtbout
xtb running finished!
Extracting data from xtb outputs via extderi
    97   0   0   F    F -1.04D-01 0.00085517 0.00025003 0.00176440 0.00068216  -35.6611589 ----
Generating mol.tmp
Generating mol.xyz via genxyz
Running: xtb mol.xyz --chrg 0 --uhf 0 --grad > xtbout
xtb running finished!
Extracting data from xtb outputs via extderi
    98   0   0   F    T  4.83D+00 0.00079048 0.00023039 0.01495997 0.00588637  -35.6611591 ----
Generating mol.tmp
Generating mol.xyz via genxyz
Running: xtb mol.xyz --chrg 0 --uhf 0 --grad > xtbout
xtb running finished!
Extracting data from xtb outputs via extderi
    99   0   0   T    F  3.58D-01 0.00079048 0.00023039 0.00535251 0.00210608  -35.6611495 ----
Generating mol.tmp
Generating mol.xyz via genxyz
Running: xtb mol.xyz --chrg 0 --uhf 0 --grad > xtbout
xtb running finished!
Extracting data from xtb outputs via extderi
   100   0   0   F    T  2.63D+00 0.00060657 0.00018468 0.00602882 0.00210608  -35.6611633 ----
Generating mol.tmp
Generating mol.xyz via genxyz
Running: xtb mol.xyz --chrg 0 --uhf 0 --grad > xtbout
xtb running finished!
Extracting data from xtb outputs via extderi
   101   0   0   F    F -1.31D-01 0.00060657 0.00018468 0.00078917 0.00027568  -35.6611669 ---+
Generating mol.tmp
Generating mol.xyz via genxyz
Running: xtb mol.xyz --chrg 0 --uhf 0 --grad > xtbout
xtb running finished!
Extracting data from xtb outputs via extderi
   102   0   0   F    T  2.47D+00 0.00050814 0.00017482 0.00532841 0.00183039  -35.6611670 ----
Generating mol.tmp
Generating mol.xyz via genxyz
Running: xtb mol.xyz --chrg 0 --uhf 0 --grad > xtbout
xtb running finished!
Extracting data from xtb outputs via extderi
   103   0   0   F    F  1.10D+00 0.00050814 0.00017482 0.00587317 0.00201753  -35.6611723 ----
Generating mol.tmp
Generating mol.xyz via genxyz
Running: xtb mol.xyz --chrg 0 --uhf 0 --grad > xtbout
xtb running finished!
Extracting data from xtb outputs via extderi
   104   0   0   F    T  7.09D+00 0.00041353 0.00014695 0.01246855 0.00384792  -35.6611744 ----
Generating mol.tmp
Generating mol.xyz via genxyz
Running: xtb mol.xyz --chrg 0 --uhf 0 --grad > xtbout
xtb running finished!
Extracting data from xtb outputs via extderi
   105   0   0   F    F -3.10D-01 0.00041353 0.00014695 0.00386906 0.00119403  -35.6611783 ----
Generating mol.tmp
Generating mol.xyz via genxyz
Running: xtb mol.xyz --chrg 0 --uhf 0 --grad > xtbout
xtb running finished!
Extracting data from xtb outputs via extderi
   106   0   0   F    T  3.89D+00 0.00049411 0.00016182 0.00928226 0.00265389  -35.6611793 ----
Generating mol.tmp
Generating mol.xyz via genxyz
Running: xtb mol.xyz --chrg 0 --uhf 0 --grad > xtbout
xtb running finished!
Extracting data from xtb outputs via extderi
   107   0   0   F    F  2.10D-01 0.00049411 0.00016182 0.00194548 0.00055623  -35.6611848 ----
Generating mol.tmp
Generating mol.xyz via genxyz
Running: xtb mol.xyz --chrg 0 --uhf 0 --grad > xtbout
xtb running finished!
Extracting data from xtb outputs via extderi
   108   0   0   F    T  6.61D+00 0.00034345 0.00013449 0.01202533 0.00321012  -35.6611850 ----
Generating mol.tmp
Generating mol.xyz via genxyz
Running: xtb mol.xyz --chrg 0 --uhf 0 --grad > xtbout
xtb running finished!
Extracting data from xtb outputs via extderi
   109   0   0   T    F  4.64D-01 0.00034345 0.00013449 0.00557731 0.00148884  -35.6611841 ----
Generating mol.tmp
Generating mol.xyz via genxyz
Running: xtb mol.xyz --chrg 0 --uhf 0 --grad > xtbout
xtb running finished!
Extracting data from xtb outputs via extderi
   110   0   0   F    T  2.47D+00 0.00064745 0.00014766 0.00524537 0.00148884  -35.6611876 ----
Generating mol.tmp
Generating mol.xyz via genxyz
Running: xtb mol.xyz --chrg 0 --uhf 0 --grad > xtbout
xtb running finished!
Extracting data from xtb outputs via extderi
   111   0   0   F    F -1.41D-01 0.00064745 0.00014766 0.00074017 0.00021009  -35.6611897 ---+
Generating mol.tmp
Generating mol.xyz via genxyz
Running: xtb mol.xyz --chrg 0 --uhf 0 --grad > xtbout
xtb running finished!
Extracting data from xtb outputs via extderi
   112   0   0   F    T  2.22D+00 0.00056379 0.00014221 0.00467477 0.00127876  -35.6611897 ----
Generating mol.tmp
Generating mol.xyz via genxyz
Running: xtb mol.xyz --chrg 0 --uhf 0 --grad > xtbout
xtb running finished!
Extracting data from xtb outputs via extderi
   113   0   0   F    F  3.23D-01 0.00056379 0.00014221 0.00150800 0.00041250  -35.6611923 ----
Generating mol.tmp
Generating mol.xyz via genxyz
Running: xtb mol.xyz --chrg 0 --uhf 0 --grad > xtbout
xtb running finished!
Extracting data from xtb outputs via extderi
   114   0   0   F    T  4.39D+00 0.00040029 0.00011348 0.00597237 0.00169126  -35.6611925 ----
Generating mol.tmp
Generating mol.xyz via genxyz
Running: xtb mol.xyz --chrg 0 --uhf 0 --grad > xtbout
xtb running finished!
Extracting data from xtb outputs via extderi
   115   0   0   F    F -3.43D-01 0.00040029 0.00011348 0.00205078 0.00058074  -35.6611938 ----
Generating mol.tmp
Generating mol.xyz via genxyz
Running: xtb mol.xyz --chrg 0 --uhf 0 --grad > xtbout
xtb running finished!
Extracting data from xtb outputs via extderi
   116   0   0   F    T  4.08D+00 0.00041099 0.00009241 0.00414713 0.00111052  -35.6611942 ----
Generating mol.tmp
Generating mol.xyz via genxyz
Running: xtb mol.xyz --chrg 0 --uhf 0 --grad > xtbout
xtb running finished!
Extracting data from xtb outputs via extderi
   117   0   0   F    T  3.20D+00 0.00033200 0.00010059 0.00404899 0.00111052  -35.6611958 ----
Generating mol.tmp
Generating mol.xyz via genxyz
Running: xtb mol.xyz --chrg 0 --uhf 0 --grad > xtbout
xtb running finished!
Extracting data from xtb outputs via extderi
   118   0   0   F    F  6.05D-01 0.00033200 0.00010059 0.00244989 0.00067193  -35.6611978 ----
Generating mol.tmp
Generating mol.xyz via genxyz
Running: xtb mol.xyz --chrg 0 --uhf 0 --grad > xtbout
xtb running finished!
Extracting data from xtb outputs via extderi
   119   0   0   F    T  3.67D+00 0.00039759 0.00012186 0.00681209 0.00178245  -35.6611981 ----
Generating mol.tmp
Generating mol.xyz via genxyz
Running: xtb mol.xyz --chrg 0 --uhf 0 --grad > xtbout
xtb running finished!
Extracting data from xtb outputs via extderi
   120   0   0   F    F -1.38D-01 0.00039759 0.00012186 0.00094269 0.00024666  -35.6612002 ---+
Generating mol.tmp
Generating mol.xyz via genxyz
Running: xtb mol.xyz --chrg 0 --uhf 0 --grad > xtbout
xtb running finished!
Extracting data from xtb outputs via extderi
   121   0   0   F    T  2.06D+00 0.00052471 0.00014771 0.00604817 0.00153579  -35.6612003 ----
Generating mol.tmp
Generating mol.xyz via genxyz
Running: xtb mol.xyz --chrg 0 --uhf 0 --grad > xtbout
xtb running finished!
Extracting data from xtb outputs via extderi
   122   0   0   F    F  9.18D-02 0.00052471 0.00014771 0.00055501 0.00014093  -35.6612025 ---+
Generating mol.tmp
Generating mol.xyz via genxyz
Running: xtb mol.xyz --chrg 0 --uhf 0 --grad > xtbout
xtb running finished!
Extracting data from xtb outputs via extderi
   123   0   0   F    T  2.33D+00 0.00054430 0.00014374 0.00674438 0.00167672  -35.6612026 ----
Generating mol.tmp
Generating mol.xyz via genxyz
Running: xtb mol.xyz --chrg 0 --uhf 0 --grad > xtbout
xtb running finished!
Extracting data from xtb outputs via extderi
   124   0   0   F    F  7.12D-01 0.00054430 0.00014374 0.00480363 0.00119423  -35.6612057 ----
Generating mol.tmp
Generating mol.xyz via genxyz
Running: xtb mol.xyz --chrg 0 --uhf 0 --grad > xtbout
xtb running finished!
Extracting data from xtb outputs via extderi
   125   0   0   F    T  3.30D+00 0.00051987 0.00015649 0.01198464 0.00287095  -35.6612064 ----
Generating mol.tmp
Generating mol.xyz via genxyz
Running: xtb mol.xyz --chrg 0 --uhf 0 --grad > xtbout
xtb running finished!
Extracting data from xtb outputs via extderi
   126   0   0   F    F  1.12D+00 0.00051987 0.00015649 0.01344768 0.00322142  -35.6612122 ----
Generating mol.tmp
Generating mol.xyz via genxyz
Running: xtb mol.xyz --chrg 0 --uhf 0 --grad > xtbout
xtb running finished!
Extracting data from xtb outputs via extderi
   127   0   0   F    T  5.51D+00 0.00062175 0.00017398 0.02596669 0.00609237  -35.6612145 ----
Generating mol.tmp
Generating mol.xyz via genxyz
Running: xtb mol.xyz --chrg 0 --uhf 0 --grad > xtbout
xtb running finished!
Extracting data from xtb outputs via extderi
   128   0   0   F    F -4.07D-01 0.00062175 0.00017398 0.01055878 0.00247733  -35.6612169 ----
Generating mol.tmp
Generating mol.xyz via genxyz
Running: xtb mol.xyz --chrg 0 --uhf 0 --grad > xtbout
xtb running finished!
Extracting data from xtb outputs via extderi
   129   0   0   F    T  4.79D+00 0.00036645 0.00014296 0.01564039 0.00361504  -35.6612191 ----
Generating mol.tmp
Generating mol.xyz via genxyz
Running: xtb mol.xyz --chrg 0 --uhf 0 --grad > xtbout
xtb running finished!
Extracting data from xtb outputs via extderi
   130   0   0   F    F -1.82D-01 0.00036645 0.00014296 0.00284251 0.00065700  -35.6612226 ----
Generating mol.tmp
Generating mol.xyz via genxyz
Running: xtb mol.xyz --chrg 0 --uhf 0 --grad > xtbout
xtb running finished!
Extracting data from xtb outputs via extderi
   131   0   0   F    T  2.95D+00 0.00056513 0.00016373 0.01291312 0.00295804  -35.6612228 ----
Generating mol.tmp
Generating mol.xyz via genxyz
Running: xtb mol.xyz --chrg 0 --uhf 0 --grad > xtbout
xtb running finished!
Extracting data from xtb outputs via extderi
   132   0   0   F    F -3.77D-01 0.00056513 0.00016373 0.00487227 0.00111610  -35.6612243 ----
Generating mol.tmp
Generating mol.xyz via genxyz
Running: xtb mol.xyz --chrg 0 --uhf 0 --grad > xtbout
xtb running finished!
Extracting data from xtb outputs via extderi
   133   0   0   F    T  2.24D+00 0.00053707 0.00014694 0.00801272 0.00184194  -35.6612251 ----
Generating mol.tmp
Generating mol.xyz via genxyz
Running: xtb mol.xyz --chrg 0 --uhf 0 --grad > xtbout
xtb running finished!
Extracting data from xtb outputs via extderi
   134   0   0   F    F  2.84D-01 0.00053707 0.00014694 0.00227628 0.00052326  -35.6612279 ----
Generating mol.tmp
Generating mol.xyz via genxyz
Running: xtb mol.xyz --chrg 0 --uhf 0 --grad > xtbout
xtb running finished!
Extracting data from xtb outputs via extderi
   135   0   0   F    T  5.33D+00 0.00036128 0.00010661 0.00982715 0.00236520  -35.6612280 ----
Generating mol.tmp
Generating mol.xyz via genxyz
Running: xtb mol.xyz --chrg 0 --uhf 0 --grad > xtbout
xtb running finished!
Extracting data from xtb outputs via extderi
   136   0   0   F    F -9.37D-02 0.00036128 0.00010661 0.00092114 0.00022170  -35.6612305 ---+
Generating mol.tmp
Generating mol.xyz via genxyz
Running: xtb mol.xyz --chrg 0 --uhf 0 --grad > xtbout
xtb running finished!
Extracting data from xtb outputs via extderi
   137   0   0   F    T  3.37D+00 0.00053877 0.00012628 0.00893507 0.00214350  -35.6612305 ----
Generating mol.tmp
Generating mol.xyz via genxyz
Running: xtb mol.xyz --chrg 0 --uhf 0 --grad > xtbout
xtb running finished!
Extracting data from xtb outputs via extderi
   138   0   0   F    F -5.73D-02 0.00053877 0.00012628 0.00051191 0.00012281  -35.6612329 ---+
Generating mol.tmp
Generating mol.xyz via genxyz
Running: xtb mol.xyz --chrg 0 --uhf 0 --grad > xtbout
xtb running finished!
Extracting data from xtb outputs via extderi
   139   0   0   F    T  4.59D+00 0.00036739 0.00010368 0.00755783 0.00202069  -35.6612329 ----
Generating mol.tmp
Generating mol.xyz via genxyz
Running: xtb mol.xyz --chrg 0 --uhf 0 --grad > xtbout
xtb running finished!
Extracting data from xtb outputs via extderi
   140   0   0   F    F -1.75D-01 0.00036739 0.00010368 0.00132504 0.00035427  -35.6612347 ----
Generating mol.tmp
Generating mol.xyz via genxyz
Running: xtb mol.xyz --chrg 0 --uhf 0 --grad > xtbout
xtb running finished!
Extracting data from xtb outputs via extderi
   141   0   0   F    T  3.48D+00 0.00030138 0.00010672 0.00607067 0.00166642  -35.6612348 ----
Generating mol.tmp
Generating mol.xyz via genxyz
Running: xtb mol.xyz --chrg 0 --uhf 0 --grad > xtbout
xtb running finished!
Extracting data from xtb outputs via extderi
   142   0   0   F    F  1.23D-01 0.00030138 0.00010672 0.00074501 0.00020451  -35.6612368 ---+
Generating mol.tmp
Generating mol.xyz via genxyz
Running: xtb mol.xyz --chrg 0 --uhf 0 --grad > xtbout
xtb running finished!
Extracting data from xtb outputs via extderi
   143   0   0   F    T  3.23D+00 0.00035491 0.00011605 0.00644212 0.00187093  -35.6612369 ----
Generating mol.tmp
Generating mol.xyz via genxyz
Running: xtb mol.xyz --chrg 0 --uhf 0 --grad > xtbout
xtb running finished!
Extracting data from xtb outputs via extderi
   144   0   0   F    F -3.91D-01 0.00035491 0.00011605 0.00252003 0.00073187  -35.6612376 ----
Generating mol.tmp
Generating mol.xyz via genxyz
Running: xtb mol.xyz --chrg 0 --uhf 0 --grad > xtbout
xtb running finished!
Extracting data from xtb outputs via extderi
   145   0   0   F    T  1.99D+00 0.00043410 0.00011423 0.00364514 0.00113906  -35.6612381 ----
Generating mol.tmp
Generating mol.xyz via genxyz
Running: xtb mol.xyz --chrg 0 --uhf 0 --grad > xtbout
xtb running finished!
Extracting data from xtb outputs via extderi
   146   0   0   F    F  5.28D-01 0.00043410 0.00011423 0.00192565 0.00060174  -35.6612397 ----
Generating mol.tmp
Generating mol.xyz via genxyz
Running: xtb mol.xyz --chrg 0 --uhf 0 --grad > xtbout
xtb running finished!
Extracting data from xtb outputs via extderi
   147   0   0   F    T  4.44D+00 0.00026166 0.00009356 0.00527375 0.00174080  -35.6612400 ----
Generating mol.tmp
Generating mol.xyz via genxyz
Running: xtb mol.xyz --chrg 0 --uhf 0 --grad > xtbout
xtb running finished!
Extracting data from xtb outputs via extderi
   148   0   0   F    F -7.66D-02 0.00026166 0.00009356 0.00040386 0.00013331  -35.6612416 --++
Generating mol.tmp
Generating mol.xyz via genxyz
Running: xtb mol.xyz --chrg 0 --uhf 0 --grad > xtbout
xtb running finished!
Extracting data from xtb outputs via extderi
   149   0   0   F    T  4.80D+00 0.00025235 0.00008476 0.00477467 0.00160749  -35.6612416 ----
Generating mol.tmp
Generating mol.xyz via genxyz
Running: xtb mol.xyz --chrg 0 --uhf 0 --grad > xtbout
xtb running finished!
Extracting data from xtb outputs via extderi
   150   0   0   F    T  4.29D+00 0.00024255 0.00008840 0.00482074 0.00160749  -35.6612432 ----
Generating mol.tmp
Generating mol.xyz via genxyz
Running: xtb mol.xyz --chrg 0 --uhf 0 --grad > xtbout
xtb running finished!
Extracting data from xtb outputs via extderi
   151   0   0   F    T  2.96D+00 0.00040554 0.00010443 0.00481770 0.00160749  -35.6612447 ----
Generating mol.tmp
Generating mol.xyz via genxyz
Running: xtb mol.xyz --chrg 0 --uhf 0 --grad > xtbout
xtb running finished!
Extracting data from xtb outputs via extderi
   152   0   0   F    F -3.89D-01 0.00040554 0.00010443 0.00187529 0.00062572  -35.6612453 ----
Generating mol.tmp
Generating mol.xyz via genxyz
Running: xtb mol.xyz --chrg 0 --uhf 0 --grad > xtbout
xtb running finished!
Extracting data from xtb outputs via extderi
   153   0   0   F    T  2.61D+00 0.00037719 0.00008890 0.00285841 0.00098178  -35.6612456 ----
Generating mol.tmp
Generating mol.xyz via genxyz
Running: xtb mol.xyz --chrg 0 --uhf 0 --grad > xtbout
xtb running finished!
Extracting data from xtb outputs via extderi
   154   0   0   F    T  2.71D+00 0.00024879 0.00008347 0.00302211 0.00098178  -35.6612466 ----
Generating mol.tmp
Generating mol.xyz via genxyz
Running: xtb mol.xyz --chrg 0 --uhf 0 --grad > xtbout
xtb running finished!
Extracting data from xtb outputs via extderi
   155   0   0   F    F  2.54D+00 0.00024879 0.00008347 0.00767564 0.00249354  -35.6612480 ----
Generating mol.tmp
Generating mol.xyz via genxyz
Running: xtb mol.xyz --chrg 0 --uhf 0 --grad > xtbout
xtb running finished!
Extracting data from xtb outputs via extderi
   156   0   0   F    T  3.01D+00 0.00045763 0.00015170 0.01079125 0.00347532  -35.6612496 ----
Generating mol.tmp
Generating mol.xyz via genxyz
Running: xtb mol.xyz --chrg 0 --uhf 0 --grad > xtbout
xtb running finished!
Extracting data from xtb outputs via extderi
   157   0   0   F    F  1.25D-01 0.00045763 0.00015170 0.00134649 0.00043364  -35.6612533 ----
Generating mol.tmp
Generating mol.xyz via genxyz
Running: xtb mol.xyz --chrg 0 --uhf 0 --grad > xtbout
xtb running finished!
Extracting data from xtb outputs via extderi
   158   0   0   F    T  3.91D+00 0.00054655 0.00013587 0.01224627 0.00390896  -35.6612533 ----
Generating mol.tmp
Generating mol.xyz via genxyz
Running: xtb mol.xyz --chrg 0 --uhf 0 --grad > xtbout
xtb running finished!
Extracting data from xtb outputs via extderi
   159   0   0   F    F -4.84D-01 0.00054655 0.00013587 0.00592526 0.00189132  -35.6612535 ----
Generating mol.tmp
Generating mol.xyz via genxyz
Running: xtb mol.xyz --chrg 0 --uhf 0 --grad > xtbout
xtb running finished!
Extracting data from xtb outputs via extderi
   160   0   0   F    T  2.23D+00 0.00041313 0.00012942 0.00629499 0.00201764  -35.6612550 ----
Generating mol.tmp
Generating mol.xyz via genxyz
Running: xtb mol.xyz --chrg 0 --uhf 0 --grad > xtbout
xtb running finished!
Extracting data from xtb outputs via extderi
   161   0   0   F    F  3.74D-01 0.00041313 0.00012942 0.00235309 0.00075420  -35.6612572 ----
Generating mol.tmp
Generating mol.xyz via genxyz
Running: xtb mol.xyz --chrg 0 --uhf 0 --grad > xtbout
xtb running finished!
Extracting data from xtb outputs via extderi
   162   0   0   F    T  2.74D+00 0.00052031 0.00013633 0.00883634 0.00277184  -35.6612574 ----
Generating mol.tmp
Generating mol.xyz via genxyz
Running: xtb mol.xyz --chrg 0 --uhf 0 --grad > xtbout
xtb running finished!
Extracting data from xtb outputs via extderi
   163   0   0   F    T  5.43D+00 0.00025506 0.00009630 0.00964471 0.00277184  -35.6612598 ----
Generating mol.tmp
Generating mol.xyz via genxyz
Running: xtb mol.xyz --chrg 0 --uhf 0 --grad > xtbout
xtb running finished!
Extracting data from xtb outputs via extderi
   164   0   0   F    F -2.18D-01 0.00025506 0.00009630 0.00210529 0.00060505  -35.6612616 ----
Generating mol.tmp
Generating mol.xyz via genxyz
Running: xtb mol.xyz --chrg 0 --uhf 0 --grad > xtbout
xtb running finished!
Extracting data from xtb outputs via extderi
   165   0   0   F    T  3.61D+00 0.00029829 0.00010217 0.00770615 0.00216679  -35.6612617 ----
Generating mol.tmp
Generating mol.xyz via genxyz
Running: xtb mol.xyz --chrg 0 --uhf 0 --grad > xtbout
xtb running finished!
Extracting data from xtb outputs via extderi
   166   0   0   F    T  3.38D+00 0.00033449 0.00010693 0.00774567 0.00216679  -35.6612635 ----
Generating mol.tmp
Generating mol.xyz via genxyz
Running: xtb mol.xyz --chrg 0 --uhf 0 --grad > xtbout
xtb running finished!
Extracting data from xtb outputs via extderi
   167   0   0   F    F -3.33D-01 0.00033449 0.00010693 0.00257958 0.00072162  -35.6612644 ----
Generating mol.tmp
Generating mol.xyz via genxyz
Running: xtb mol.xyz --chrg 0 --uhf 0 --grad > xtbout
xtb running finished!
Extracting data from xtb outputs via extderi
   168   0   0   F    T  1.84D+00 0.00042531 0.00011638 0.00516824 0.00144517  -35.6612647 ----
Generating mol.tmp
Generating mol.xyz via genxyz
Running: xtb mol.xyz --chrg 0 --uhf 0 --grad > xtbout
xtb running finished!
Extracting data from xtb outputs via extderi
   169   0   0   F    F  6.10D-01 0.00042531 0.00011638 0.00315189 0.00088135  -35.6612663 ----
Generating mol.tmp
Generating mol.xyz via genxyz
Running: xtb mol.xyz --chrg 0 --uhf 0 --grad > xtbout
xtb running finished!
Extracting data from xtb outputs via extderi
   170   0   0   F    T  3.81D+00 0.00030404 0.00010364 0.00811479 0.00232652  -35.6612666 ----
Generating mol.tmp
Generating mol.xyz via genxyz
Running: xtb mol.xyz --chrg 0 --uhf 0 --grad > xtbout
xtb running finished!
Extracting data from xtb outputs via extderi
   171   0   0   F    F  7.37D-01 0.00030404 0.00010364 0.00597971 0.00171439  -35.6612693 ----
Generating mol.tmp
Generating mol.xyz via genxyz
Running: xtb mol.xyz --chrg 0 --uhf 0 --grad > xtbout
xtb running finished!
Extracting data from xtb outputs via extderi
   172   0   0   F    T  3.84D+00 0.00043442 0.00013536 0.01378605 0.00404092  -35.6612699 ----
Generating mol.tmp
Generating mol.xyz via genxyz
Running: xtb mol.xyz --chrg 0 --uhf 0 --grad > xtbout
xtb running finished!
Extracting data from xtb outputs via extderi
   173   0   0   F    F  1.45D-01 0.00043442 0.00013536 0.00199580 0.00058500  -35.6612736 ----
Generating mol.tmp
Generating mol.xyz via genxyz
Running: xtb mol.xyz --chrg 0 --uhf 0 --grad > xtbout
xtb running finished!
Extracting data from xtb outputs via extderi
   174   0   0   F    T  3.52D+00 0.00048398 0.00015008 0.01599810 0.00462592  -35.6612737 ----
Generating mol.tmp
Generating mol.xyz via genxyz
Running: xtb mol.xyz --chrg 0 --uhf 0 --grad > xtbout
xtb running finished!
Extracting data from xtb outputs via extderi
   175   0   0   F    F  8.42D-02 0.00048398 0.00015008 0.00134728 0.00038957  -35.6612776 ----
Generating mol.tmp
Generating mol.xyz via genxyz
Running: xtb mol.xyz --chrg 0 --uhf 0 --grad > xtbout
xtb running finished!
Extracting data from xtb outputs via extderi
   176   0   0   F    T  2.39D+00 0.00060625 0.00018967 0.01738887 0.00501549  -35.6612777 ----
Generating mol.tmp
Generating mol.xyz via genxyz
Running: xtb mol.xyz --chrg 0 --uhf 0 --grad > xtbout
xtb running finished!
Extracting data from xtb outputs via extderi
   177   0   0   F    F  1.05D-01 0.00060625 0.00018967 0.00183320 0.00052875  -35.6612821 ----
Generating mol.tmp
Generating mol.xyz via genxyz
Running: xtb mol.xyz --chrg 0 --uhf 0 --grad > xtbout
xtb running finished!
Extracting data from xtb outputs via extderi
   178   0   0   F    T  2.25D+00 0.00078053 0.00020627 0.01907443 0.00554424  -35.6612821 ----
Generating mol.tmp
Generating mol.xyz via genxyz
Running: xtb mol.xyz --chrg 0 --uhf 0 --grad > xtbout
xtb running finished!
Extracting data from xtb outputs via extderi
   179   0   0   F    F  4.21D-02 0.00078053 0.00020627 0.00080256 0.00023327  -35.6612868 ---+
Generating mol.tmp
Generating mol.xyz via genxyz
Running: xtb mol.xyz --chrg 0 --uhf 0 --grad > xtbout
xtb running finished!
Extracting data from xtb outputs via extderi
   180   0   0   F    T  3.47D+00 0.00054611 0.00017181 0.01987155 0.00577752  -35.6612868 ----
Generating mol.tmp
Generating mol.xyz via genxyz
Running: xtb mol.xyz --chrg 0 --uhf 0 --grad > xtbout
xtb running finished!
Extracting data from xtb outputs via extderi
   181   0   0   F    F -5.39D-02 0.00054611 0.00017181 0.00107132 0.00031148  -35.6612913 ----
Generating mol.tmp
Generating mol.xyz via genxyz
Running: xtb mol.xyz --chrg 0 --uhf 0 --grad > xtbout
xtb running finished!
Extracting data from xtb outputs via extderi
   182   0   0   F    T  5.06D+00 0.00036232 0.00013812 0.01982728 0.00546604  -35.6612913 ----
Generating mol.tmp
Generating mol.xyz via genxyz
Running: xtb mol.xyz --chrg 0 --uhf 0 --grad > xtbout
xtb running finished!
Extracting data from xtb outputs via extderi
   183   0   0   F    F -3.93D-01 0.00036232 0.00013812 0.00779221 0.00214818  -35.6612929 ----
Generating mol.tmp
Generating mol.xyz via genxyz
Running: xtb mol.xyz --chrg 0 --uhf 0 --grad > xtbout
xtb running finished!
Extracting data from xtb outputs via extderi
   184   0   0   F    T  4.97D+00 0.00039079 0.00010731 0.01262577 0.00331786  -35.6612940 ----
Generating mol.tmp
Generating mol.xyz via genxyz
Running: xtb mol.xyz --chrg 0 --uhf 0 --grad > xtbout
xtb running finished!
Extracting data from xtb outputs via extderi
   185   0   0   F    F -4.10D-02 0.00039079 0.00010731 0.00051753 0.00013600  -35.6612965 ---+
Generating mol.tmp
Generating mol.xyz via genxyz
Running: xtb mol.xyz --chrg 0 --uhf 0 --grad > xtbout
xtb running finished!
Extracting data from xtb outputs via extderi
   186   0   0   F    T  3.58D+00 0.00044376 0.00012297 0.01231120 0.00318186  -35.6612966 ----
Generating mol.tmp
Generating mol.xyz via genxyz
Running: xtb mol.xyz --chrg 0 --uhf 0 --grad > xtbout
xtb running finished!
Extracting data from xtb outputs via extderi
   187   0   0   F    F -4.87D-01 0.00044376 0.00012297 0.00599019 0.00154818  -35.6612967 ----
Generating mol.tmp
Generating mol.xyz via genxyz
Running: xtb mol.xyz --chrg 0 --uhf 0 --grad > xtbout
xtb running finished!
Extracting data from xtb outputs via extderi
   188   0   0   F    T  2.19D+00 0.00040875 0.00011179 0.00646672 0.00163368  -35.6612978 ----
Generating mol.tmp
Generating mol.xyz via genxyz
Running: xtb mol.xyz --chrg 0 --uhf 0 --grad > xtbout
xtb running finished!
Extracting data from xtb outputs via extderi
   189   0   0   F    F  3.74D-01 0.00040875 0.00011179 0.00241880 0.00061106  -35.6612995 ----
Generating mol.tmp
Generating mol.xyz via genxyz
Running: xtb mol.xyz --chrg 0 --uhf 0 --grad > xtbout
xtb running finished!
Extracting data from xtb outputs via extderi
   190   0   0   F    T  2.98D+00 0.00043338 0.00011184 0.00905453 0.00224474  -35.6612996 ----
Generating mol.tmp
Generating mol.xyz via genxyz
Running: xtb mol.xyz --chrg 0 --uhf 0 --grad > xtbout
xtb running finished!
Extracting data from xtb outputs via extderi
   191   0   0   F    F  6.54D-01 0.00043338 0.00011184 0.00592518 0.00146893  -35.6613020 ----
Generating mol.tmp
Generating mol.xyz via genxyz
Running: xtb mol.xyz --chrg 0 --uhf 0 --grad > xtbout
xtb running finished!
Extracting data from xtb outputs via extderi
   192   0   0   F    T  4.42D+00 0.00037337 0.00011754 0.01442820 0.00371367  -35.6613025 ----
Generating mol.tmp
Generating mol.xyz via genxyz
Running: xtb mol.xyz --chrg 0 --uhf 0 --grad > xtbout
xtb running finished!
Extracting data from xtb outputs via extderi
   193   0   0   F    F -5.85D-02 0.00037337 0.00011754 0.00084392 0.00021722  -35.6613051 ---+
Generating mol.tmp
Generating mol.xyz via genxyz
Running: xtb mol.xyz --chrg 0 --uhf 0 --grad > xtbout
xtb running finished!
Extracting data from xtb outputs via extderi
   194   0   0   F    T  4.92D+00 0.00028512 0.00010749 0.01328990 0.00349645  -35.6613051 ----
Generating mol.tmp
Generating mol.xyz via genxyz
Running: xtb mol.xyz --chrg 0 --uhf 0 --grad > xtbout
xtb running finished!
Extracting data from xtb outputs via extderi
   195   0   0   F    F -1.59D-01 0.00028512 0.00010749 0.00211173 0.00055558  -35.6613073 ----
Generating mol.tmp
Generating mol.xyz via genxyz
Running: xtb mol.xyz --chrg 0 --uhf 0 --grad > xtbout
xtb running finished!
Extracting data from xtb outputs via extderi
   196   0   0   F    T  2.60D+00 0.00041603 0.00013503 0.01117689 0.00294088  -35.6613074 ----
Generating mol.tmp
Generating mol.xyz via genxyz
Running: xtb mol.xyz --chrg 0 --uhf 0 --grad > xtbout
xtb running finished!
Extracting data from xtb outputs via extderi
   197   0   0   F    F  6.97D-02 0.00041603 0.00013503 0.00077935 0.00020506  -35.6613097 ---+
Generating mol.tmp
Generating mol.xyz via genxyz
Running: xtb mol.xyz --chrg 0 --uhf 0 --grad > xtbout
xtb running finished!
Extracting data from xtb outputs via extderi
   198   0   0   F    T  2.15D+00 0.00065471 0.00015305 0.01192410 0.00314594  -35.6613097 ----
Generating mol.tmp
Generating mol.xyz via genxyz
Running: xtb mol.xyz --chrg 0 --uhf 0 --grad > xtbout
xtb running finished!
Extracting data from xtb outputs via extderi
   199   0   0   F    T  3.75D+00 0.00037006 0.00011458 0.01189928 0.00314594  -35.6613121 ----
Generating mol.tmp
Generating mol.xyz via genxyz
Running: xtb mol.xyz --chrg 0 --uhf 0 --grad > xtbout
xtb running finished!
Extracting data from xtb outputs via extderi
   200   0   0   F    F -6.08D-02 0.00037006 0.00011458 0.00072323 0.00019121  -35.6613142 ---+
Generating mol.tmp
Generating mol.xyz via genxyz
Running: xtb mol.xyz --chrg 0 --uhf 0 --grad > xtbout
xtb running finished!
Extracting data from xtb outputs via extderi
   201   0   0   F    T  2.77D+00 0.00051336 0.00012942 0.01152167 0.00295473  -35.6613142 ----
Generating mol.tmp
Generating mol.xyz via genxyz
Running: xtb mol.xyz --chrg 0 --uhf 0 --grad > xtbout
xtb running finished!
Extracting data from xtb outputs via extderi
   202   0   0   F    F  6.87D-01 0.00051336 0.00012942 0.00791785 0.00203053  -35.6613172 ----
Generating mol.tmp
Generating mol.xyz via genxyz
Running: xtb mol.xyz --chrg 0 --uhf 0 --grad > xtbout
xtb running finished!
Extracting data from xtb outputs via extderi
   203   0   0   F    T  5.14D+00 0.00033325 0.00012305 0.02050559 0.00498526  -35.6613179 ----
Generating mol.tmp
Generating mol.xyz via genxyz
Running: xtb mol.xyz --chrg 0 --uhf 0 --grad > xtbout
xtb running finished!
Extracting data from xtb outputs via extderi
   204   0   0   F    F -1.99D-01 0.00033325 0.00012305 0.00408881 0.00099406  -35.6613206 ----
Generating mol.tmp
Generating mol.xyz via genxyz
Running: xtb mol.xyz --chrg 0 --uhf 0 --grad > xtbout
xtb running finished!
Extracting data from xtb outputs via extderi
[...]
   X12       -4.43701   0.00002   0.00000   0.00002   0.00002  -4.43699
   Y12       -0.82967  -0.00000   0.00000  -0.00000  -0.00000  -0.82967
   Z12        3.38650   0.00001   0.00000   0.00001   0.00001   3.38651
   X13       -6.44198   0.00001   0.00000   0.00001   0.00001  -6.44197
   Y13        1.82456   0.00000   0.00000   0.00000   0.00000   1.82457
   Z13        3.15551  -0.00001   0.00000  -0.00001  -0.00001   3.15551
   X14       -3.14417   0.00000   0.00000   0.00000   0.00000  -3.14417
   Y14        2.23950   0.00000   0.00000   0.00000   0.00000   2.23950
   Z14        3.27983  -0.00001   0.00000  -0.00001  -0.00001   3.27982
   X15       -5.32173  -0.00002   0.00000  -0.00002  -0.00002  -5.32175
   Y15        3.21330   0.00000   0.00000   0.00000   0.00000   3.21330
   Z15       -3.57041   0.00002   0.00000   0.00002   0.00002  -3.57039
   X16       -7.56181   0.00001   0.00000   0.00001   0.00001  -7.56180
   Y16        3.49457  -0.00001   0.00000  -0.00001  -0.00001   3.49456
   Z16       -1.10932   0.00000   0.00000   0.00000   0.00000  -1.10932
   X17       -4.59058  -0.00001   0.00000  -0.00001  -0.00001  -4.59059
   Y17        4.95693  -0.00000   0.00000  -0.00000  -0.00000   4.95693
   Z17       -0.81228   0.00000   0.00000   0.00000   0.00000  -0.81227
   X18       -3.57298  -0.00002   0.00000  -0.00002  -0.00002  -3.57300
   Y18       -0.74195  -0.00000   0.00000  -0.00000  -0.00000  -0.74196
   Z18       -3.68367   0.00004   0.00000   0.00004   0.00004  -3.68363
   X19       -2.75978  -0.00000   0.00000  -0.00000  -0.00000  -2.75978
   Y19       -3.62830  -0.00002   0.00000  -0.00002  -0.00002  -3.62832
   Z19        1.27882  -0.00002   0.00000  -0.00002  -0.00002   1.27880
   X20       -3.23056   0.00001   0.00000   0.00001   0.00001  -3.23055
   Y20       -4.91846  -0.00000   0.00000  -0.00000  -0.00000  -4.91846
   Z20       -1.75539   0.00000   0.00000   0.00000   0.00000  -1.75539
   X21        0.76343   0.00001   0.00000   0.00001   0.00001   0.76345
   Y21       -2.97480   0.00001   0.00000   0.00001   0.00001  -2.97479
   Z21       -3.22788   0.00000   0.00000   0.00000   0.00000  -3.22788
   X22        1.23840  -0.00000   0.00000  -0.00000  -0.00000   1.23840
   Y22       -5.18819  -0.00001   0.00000  -0.00001  -0.00001  -5.18820
   Z22       -0.78365   0.00000   0.00000   0.00000   0.00000  -0.78365
   X23        0.72210  -0.00001   0.00000  -0.00001  -0.00001   0.72209
   Y23        0.41043   0.00002   0.00000   0.00002   0.00002   0.41045
   Z23        0.33044   0.00001   0.00000   0.00001   0.00001   0.33045
   X24        5.74048  -0.00001   0.00000  -0.00001  -0.00001   5.74047
   Y24       -2.24571  -0.00001   0.00000  -0.00001  -0.00001  -2.24571
   Z24       -0.60043   0.00000   0.00000   0.00000   0.00000  -0.60043
   X25        4.15310  -0.00001   0.00000  -0.00001  -0.00001   4.15309
   Y25       -0.44787   0.00000   0.00000   0.00000   0.00000  -0.44787
   Z25       -2.91988   0.00001   0.00000   0.00001   0.00001  -2.91987
   X26        7.41975  -0.00002   0.00000  -0.00002  -0.00002   7.41973
   Y26        2.07080  -0.00001   0.00000  -0.00001  -0.00001   2.07079
   Z26       -0.79131   0.00001   0.00000   0.00001   0.00001  -0.79131
   X27        5.95771   0.00001   0.00000   0.00001   0.00001   5.95772
   Y27        1.57293   0.00001   0.00000   0.00001   0.00001   1.57295
   Z27        2.18419  -0.00000   0.00000  -0.00000  -0.00000   2.18418
   X28        3.50488   0.00000   0.00000   0.00000   0.00000   3.50489
   Y28        3.97907  -0.00000   0.00000  -0.00000  -0.00000   3.97907
   Z28       -1.85206  -0.00000   0.00000  -0.00000  -0.00000  -1.85206
   X29        3.02800  -0.00000   0.00000  -0.00000  -0.00000   3.02800
   Y29       -0.69072   0.00001   0.00000   0.00001   0.00001  -0.69071
   Z29        4.20869   0.00002   0.00000   0.00002   0.00002   4.20870
   X30        3.45097  -0.00000   0.00000  -0.00000  -0.00000   3.45097
   Y30       -3.82559  -0.00000   0.00000  -0.00000  -0.00000  -3.82560
   Z30        3.14358  -0.00001   0.00000  -0.00001  -0.00001   3.14357
   X31        0.40567  -0.00001   0.00000  -0.00001  -0.00001   0.40566
   Y31       -2.69795   0.00000   0.00000   0.00000   0.00000  -2.69794
   Z31        3.89706  -0.00001   0.00000  -0.00001  -0.00001   3.89704
         Item               Value     Threshold  Converged?
 Maximum Force            0.000099     0.000450     YES
 RMS     Force            0.000023     0.000300     YES
 Maximum Displacement     0.000099     0.001800     YES
 RMS     Displacement     0.000023     0.001200     YES
 Predicted change in Energy=-2.538381D-08
 Optimization completed.
    -- Stationary point found.
 Largest change from initial coordinates is atom   13       0.666 Angstoms.
 GradGradGradGradGradGradGradGradGradGradGradGradGradGradGradGradGradGrad

 Leave Link  103 at Wed Jan 24 07:45:50 2024, MaxMem=   104857600 cpu:               0.0 elap:               0.0
 (Enter /public/gkxiao/software/g16/l202.exe)
                          Input orientation:                          
 ---------------------------------------------------------------------
 Center     Atomic      Atomic             Coordinates (Angstroms)
 Number     Number       Type             X           Y           Z
 ---------------------------------------------------------------------
      1          6           0       -2.457323    0.545321    1.348140
      2          6           0       -2.393512    0.505387   -0.150371
      3          6           0       -2.940260    1.738840   -0.810090
      4          6           0       -1.893981   -0.492243   -0.869789
      5          6           0       -1.268903   -1.763023   -0.383289
      6          6           0        0.244174   -1.759377   -0.642755
      7          6           0        0.985331   -0.696310    0.177481
      8          6           0        2.337382   -0.364257   -0.466715
      9          6           0        2.962980    0.918836    0.084740
     10          8           0        2.126623    2.042715   -0.057323
     11          6           0        1.169776   -1.156666    1.621142
     12          1           0       -2.347963   -0.439040    1.792060
     13          1           0       -3.408948    0.965518    1.669826
     14          1           0       -1.663822    1.185091    1.735609
     15          1           0       -2.816138    1.700404   -1.889377
     16          1           0       -4.001540    1.849246   -0.587028
     17          1           0       -2.429231    2.623094   -0.429839
     18          1           0       -1.890740   -0.392625   -1.949316
     19          1           0       -1.460412   -1.920012    0.676725
     20          1           0       -1.709538   -2.602736   -0.928912
     21          1           0        0.403991   -1.574196   -1.708120
     22          1           0        0.655335   -2.745473   -0.414691
     23          1           0        0.382117    0.217190    0.174862
     24          1           0        3.037731   -1.188376   -0.317735
     25          1           0        2.197724   -0.237001   -1.545134
     26          1           0        3.926364    1.095822   -0.418746
     27          1           0        3.152684    0.832361    1.155822
     28          1           0        1.854704    2.105632   -0.980066
     29          1           0        1.602349   -0.365512    2.227142
     30          1           0        1.826174   -2.024417    1.663511
     31          1           0        0.214671   -1.427692    2.062234
 ---------------------------------------------------------------------
                    Distance matrix (angstroms):
                    1          2          3          4          5
     1  C    0.000000
     2  C    1.500401   0.000000
     3  C    2.513101   1.501855   0.000000
     4  C    2.512589   1.327539   2.464953   0.000000
     5  C    3.120679   2.542574   3.903670   1.497427   0.000000
     6  C    4.071042   3.511265   4.733512   2.495772   1.535166
     7  C    3.842389   3.601130   4.723930   3.070644   2.556151
     8  C    5.206749   4.820551   5.691610   4.252444   3.868953
     9  C    5.578117   5.377567   6.026721   5.147071   5.031923
    10  O    5.022955   4.775317   5.131501   4.821967   5.110723
    11  C    4.015861   4.312505   5.584554   4.004098   3.214431
    12  H    1.085353   2.160337   3.444585   2.700809   2.765762
    13  H    1.088870   2.134467   2.639637   3.296943   4.029889
    14  H    1.090451   2.133394   2.901124   3.107172   3.651994
    15  H    3.456080   2.151934   1.087080   2.587979   4.081368
    16  H    2.798160   2.140649   1.090074   3.162962   4.534016
    17  H    2.734802   2.136366   1.089792   3.191453   4.537241
    18  H    3.474763   2.072536   2.634857   1.084118   2.171892
    19  H    2.742717   2.727146   4.217554   2.149002   1.088554
    20  H    3.956565   3.276336   4.514208   2.119362   1.094066
    21  H    4.692569   3.818019   4.792356   2.674714   2.142290
    22  H    4.860611   4.464686   5.761397   3.432662   2.160760
    23  H    3.089769   2.809439   3.784671   2.602924   2.637924
    24  H    5.998039   5.691682   6.674382   5.011102   4.345297
    25  H    5.536473   4.855508   5.553658   4.154912   3.961834
    26  H    6.646533   6.353067   6.907759   6.049942   5.930012
    27  H    5.620636   5.707305   6.466102   5.597008   5.353065
    28  H    5.142829   4.614814   4.811975   4.562209   5.007949
    29  H    4.252435   4.730533   5.855628   4.672405   4.124497
    30  H    5.005133   5.243646   6.557415   4.754441   3.719840
    31  H    3.397391   3.928745   5.313263   3.730715   2.879934
                    6          7          8          9         10
     6  C    0.000000
     7  C    1.533693   0.000000
     8  C    2.521681   1.534044   0.000000
     9  C    3.885098   2.555072   1.530295   0.000000
    10  O    4.282785   2.976565   2.450619   1.408112   0.000000
    11  C    2.518974   1.526468   2.519993   3.143855   3.737491
    12  H    3.793519   3.712667   5.201934   5.741506   5.440703
    13  H    5.110615   4.929346   6.273230   6.566289   5.897961
    14  H    4.238744   3.603531   4.822898   4.919711   4.279906
    15  H    4.784314   4.946444   5.731106   6.156801   5.282471
    16  H    5.572374   5.650947   6.715356   7.058433   6.154056
    17  H    5.137945   4.800678   5.625498   5.678489   4.607756
    18  H    2.851836   3.589885   4.480617   5.423644   5.064556
    19  H    2.161583   2.779991   4.260407   5.289225   5.395262
    20  H    2.147120   3.481505   4.647792   5.938129   6.087365
    21  H    1.093086   2.159660   2.596737   3.997247   4.332971
    22  H    1.092452   2.158387   2.915850   4.359108   5.021867
    23  H    2.143442   1.094695   2.138402   2.676058   2.535696
    24  H    2.869781   2.167883   1.091722   2.146606   3.367177
    25  H    2.635958   2.155984   1.094846   2.139642   2.723187
    26  H    4.664854   3.495268   2.158470   1.101331   2.065502
    27  H    4.290852   2.826907   2.174681   1.091184   1.997368
    28  H    4.200700   3.153823   2.568435   1.941796   0.964030
    29  H    3.467537   2.165929   2.792336   2.844425   3.360536
    30  H    2.809240   2.163139   2.748695   3.528114   4.426410
    31  H    2.725408   2.163591   3.468772   4.119451   4.493529
                   11         12         13         14         15
    11  C    0.000000
    12  H    3.594257   0.000000
    13  H    5.046855   1.764487   0.000000
    14  H    3.677799   1.763246   1.760115   0.000000
    15  H    6.031095   4.283619   3.682311   3.838478   0.000000
    16  H    6.376051   3.691968   2.495101   3.361647   1.767327
    17  H    5.607670   3.784192   2.848859   2.709773   1.769550
    18  H    4.764314   3.769496   4.153034   4.014891   2.289263
    19  H    2.896983   2.055479   3.620680   3.286985   4.640074
    20  H    4.109056   3.534523   4.730102   4.631349   4.545775
    21  H    3.441620   4.594898   5.692027   4.873273   4.596204
    22  H    2.633168   4.382828   5.885156   5.044959   5.830235
    23  H    2.144671   3.240263   4.143318   2.749296   4.085321
    24  H    2.692491   5.832533   7.081619   5.652802   6.714380
    25  H    3.453660   5.642779   6.573948   5.262809   5.386173
    26  H    4.102879   6.827198   7.627969   5.991610   6.927454
    27  H    2.846871   5.681406   6.583080   4.864082   6.756743
    28  H    4.228238   5.641139   6.002318   4.538977   4.775754
    29  H    1.086407   3.974880   5.214916   3.648815   6.382537
    30  H    1.088873   4.466919   6.028785   4.741962   6.931693
    31  H    1.086389   2.759986   4.360282   3.234510   5.880989
                   16         17         18         19         20
    16  H    0.000000
    17  H    1.759461   0.000000
    18  H    3.367089   3.419554   0.000000
    19  H    4.718231   4.775239   3.068254   0.000000
    20  H    5.018994   5.298710   2.441034   1.762454   0.000000
    21  H    5.690826   5.222873   2.592311   3.046813   2.476300
    22  H    6.544281   6.191631   3.791235   2.519714   2.424338
    23  H    4.739254   3.749362   3.170155   2.866079   3.680396
    24  H    7.671441   6.665400   5.252152   4.664497   4.991043
    25  H    6.610694   5.552725   4.111341   4.599037   4.609026
    26  H    7.965401   6.536533   6.196517   6.269981   6.760398
    27  H    7.433337   6.072793   6.048024   5.393120   6.307709
    28  H    5.875015   4.350013   4.605332   5.471814   5.905519
    29  H    6.650435   5.678464   5.444742   3.768391   5.092587
    30  H    7.350676   6.640026   5.434217   3.433117   4.422257
    31  H    5.960986   5.441463   4.647220   2.228883   3.745699
                   21         22         23         24         25
    21  H    0.000000
    22  H    1.762958   0.000000
    23  H    2.599070   3.033083   0.000000
    24  H    3.003101   2.847764   3.044759   0.000000
    25  H    2.243242   3.154250   2.541871   1.765569   0.000000
    26  H    4.604193   5.045314   3.699466   2.453046   2.456291
    27  H    4.642089   4.637258   3.002792   2.503590   3.057883
    28  H    4.021910   5.029051   2.658680   3.562124   2.434111
    29  H    4.287571   3.679719   2.457715   3.035428   3.821133
    30  H    3.686895   2.491929   3.053880   2.468232   3.691654
    31  H    3.777946   2.840051   2.509153   3.700161   4.285248
                   26         27         28         29         30
    26  H    0.000000
    27  H    1.774051   0.000000
    28  H    2.372039   2.804993   0.000000
    29  H    3.812776   2.232972   4.056651   0.000000
    30  H    4.299126   3.190385   4.903735   1.766280   0.000000
    31  H    5.128357   3.815932   4.942638   1.755298   1.764086
                   31
    31  H    0.000000
 Stoichiometry    C10H20O
 Framework group  C1[X(C10H20O)]
 Deg. of freedom    87
 Full point group                 C1      NOp   1
 RotChk:  IX=0 Diff= 1.17D-01
 Largest Abelian subgroup         C1      NOp   1
 Largest concise Abelian subgroup C1      NOp   1
                         Standard orientation:                         
 ---------------------------------------------------------------------
 Center     Atomic      Atomic             Coordinates (Angstroms)
 Number     Number       Type             X           Y           Z
 ---------------------------------------------------------------------
      1          6           0       -2.348232    0.329356    1.496554
      2          6           0       -2.364058    0.408433   -0.001678
      3          6           0       -3.003550    1.659337   -0.532580
      4          6           0       -1.857695   -0.503741   -0.822589
      5          6           0       -1.147715   -1.774427   -0.471058
      6          6           0        0.347173   -1.672988   -0.805356
      7          6           0        1.080655   -0.639640    0.058594
      8          6           0        2.378514   -0.189820   -0.624425
      9          6           0        2.971737    1.077392   -0.004697
     10          8           0        2.076677    2.164384   -0.014384
     11          6           0        1.364780   -1.199858    1.449828
     12          1           0       -2.168492   -0.679377    1.854523
     13          1           0       -3.299797    0.674007    1.898272
     14          1           0       -1.566015    0.977293    1.893287
     15          1           0       -2.936532    1.710677   -1.616378
     16          1           0       -4.055186    1.697497   -0.248210
     17          1           0       -2.515029    2.536738   -0.109305
     18          1           0       -1.917787   -0.321138   -1.889528
     19          1           0       -1.273749   -2.022329    0.581372
     20          1           0       -1.577111   -2.591106   -1.058965
     21          1           0        0.439973   -1.398232   -1.859269
     22          1           0        0.816293   -2.651285   -0.677634
     23          1           0        0.435655    0.239114    0.159207
     24          1           0        3.124116   -0.985870   -0.577103
     25          1           0        2.174648    0.012869   -1.680855
     26          1           0        3.896911    1.341978   -0.540399
     27          1           0        3.223192    0.918448    1.045155
     28          1           0        1.752387    2.284206   -0.914291
     29          1           0        1.791710   -0.436599    2.094379
     30          1           0        2.062820   -2.033390    1.389752
     31          1           0        0.448923   -1.552841    1.915501
 ---------------------------------------------------------------------
 Rotational constants (GHZ):           1.3006151           0.6267748           0.5255740
 Leave Link  202 at Wed Jan 24 07:45:50 2024, MaxMem=   104857600 cpu:               0.0 elap:               0.0
 (Enter /public/gkxiao/software/g16/l9999.exe)
 1\1\GINC-MASTER\FOpt\RExternal='./xtb.sh'\ZDO\C10H20O1\GKXIAO\24-Jan-2
 024\0\\#P OPT external="./xtb.sh"\\Structure: CONF_89 Calculation: Opt
  at xTB-GNF2 level\\0,1\C,-2.45732325,0.5453207816,1.3481402813\C,-2.3
 935116707,0.5053874651,-0.1503713819\C,-2.9402596135,1.7388400379,-0.8
 100903928\C,-1.8939807751,-0.49224285,-0.8697886873\C,-1.2689026935,-1
 .7630229393,-0.3832885019\C,0.2441736094,-1.7593771738,-0.6427548958\C
 ,0.985330653,-0.696309744,0.1774814275\C,2.3373823083,-0.3642569759,-0
 .4667146669\C,2.962980356,0.9188361206,0.0847400462\O,2.1266232659,2.0
 427148975,-0.0573228085\C,1.169776071,-1.1566659745,1.6211421839\H,-2.
 3479628796,-0.4390402354,1.7920599377\H,-3.408948062,0.9655176898,1.66
 98260957\H,-1.6638216444,1.1850907119,1.7356094897\H,-2.816138484,1.70
 04040058,-1.8893774668\H,-4.001539814,1.8492459043,-0.5870279831\H,-2.
 4292311498,2.6230943699,-0.4298385227\H,-1.8907401552,-0.3926251945,-1
 .9493157728\H,-1.4604120219,-1.9200116242,0.6767246905\H,-1.7095375069
 ,-2.6027355926,-0.9289118446\H,0.4039911305,-1.5741962189,-1.708120022
 8\H,0.6553345366,-2.7454727908,-0.4146914078\H,0.3821167984,0.21719043
 63,0.1748621883\H,3.0377309627,-1.1883764339,-0.3177348734\H,2.1977243
 982,-0.2370014443,-1.5451342398\H,3.9263637068,1.0958219649,-0.4187457
 101\H,3.1526835204,0.8323607872,1.155822099\H,1.8547037448,2.105631707
 4,-0.9800659031\H,1.6023494694,-0.3655122855,2.2271420844\H,1.82617369
 48,-2.0244173762,1.6635106719\H,0.2146714942,-1.4276920264,2.062233885
 8\\Version=ES64L-G16RevA.03\HF=-35.6615002\RMSD=0.000e+00\RMSF=2.336e-
 05\Dipole=0.,0.,0.\PG=C01 [X(C10H20O1)]\\@


 FOR THE NATURE OF THE CHEMICAL BOND
 IS THE PROBLEM AT THE HEART OF ALL CHEMISTRY.

                     -- BRYCE CRAWFORD, JR., 1953
 Job cpu time:       0 days  0 hours  0 minutes  1.5 seconds.
 Elapsed time:       0 days  0 hours  0 minutes 43.7 seconds.
 File lengths (MBytes):  RWF=      6 Int=      0 D2E=      0 Chk=      1 Scr=      1
 Normal termination of Gaussian 16 at Wed Jan 24 07:45:50 2024.
